+ 0.1 0 1 tcp 40 ------- 0 0.0 1.0 0 0
- 0.1 0 1 tcp 40 ------- 0 0.0 1.0 0 0
r 0.110107 0 1 tcp 40 ------- 0 0.0 1.0 0 0
+ 0.110107 1 0 ack 40 ------- 0 1.0 0.0 0 1
- 0.110107 1 0 ack 40 ------- 0 1.0 0.0 0 1
r 0.120213 1 0 ack 40 ------- 0 1.0 0.0 0 1
+ 0.120213 0 1 tcp 1040 ------- 0 0.0 1.0 1 2
- 0.120213 0 1 tcp 1040 ------- 0 0.0 1.0 1 2
+ 0.120213 0 1 tcp 1040 ------- 0 0.0 1.0 2 3
- 0.122987 0 1 tcp 1040 ------- 0 0.0 1.0 2 3
r 0.132987 0 1 tcp 1040 ------- 0 0.0 1.0 1 2
+ 0.132987 1 0 ack 40 ------- 0 1.0 0.0 1 4
- 0.132987 1 0 ack 40 ------- 0 1.0 0.0 1 4
r 0.13576 0 1 tcp 1040 ------- 0 0.0 1.0 2 3
+ 0.13576 1 0 ack 40 ------- 0 1.0 0.0 2 5
- 0.13576 1 0 ack 40 ------- 0 1.0 0.0 2 5
r 0.143093 1 0 ack 40 ------- 0 1.0 0.0 1 4
+ 0.143093 0 1 tcp 1040 ------- 0 0.0 1.0 3 6
- 0.143093 0 1 tcp 1040 ------- 0 0.0 1.0 3 6
+ 0.143093 0 1 tcp 1040 ------- 0 0.0 1.0 4 7
- 0.145867 0 1 tcp 1040 ------- 0 0.0 1.0 4 7
r 0.145867 1 0 ack 40 ------- 0 1.0 0.0 2 5
+ 0.145867 0 1 tcp 1040 ------- 0 0.0 1.0 5 8
+ 0.145867 0 1 tcp 1040 ------- 0 0.0 1.0 6 9
- 0.14864 0 1 tcp 1040 ------- 0 0.0 1.0 5 8
- 0.151413 0 1 tcp 1040 ------- 0 0.0 1.0 6 9
r 0.155867 0 1 tcp 1040 ------- 0 0.0 1.0 3 6
+ 0.155867 1 0 ack 40 ------- 0 1.0 0.0 3 10
- 0.155867 1 0 ack 40 ------- 0 1.0 0.0 3 10
r 0.15864 0 1 tcp 1040 ------- 0 0.0 1.0 4 7
+ 0.15864 1 0 ack 40 ------- 0 1.0 0.0 4 11
- 0.15864 1 0 ack 40 ------- 0 1.0 0.0 4 11
r 0.161413 0 1 tcp 1040 ------- 0 0.0 1.0 5 8
+ 0.161413 1 0 ack 40 ------- 0 1.0 0.0 5 12
- 0.161413 1 0 ack 40 ------- 0 1.0 0.0 5 12
r 0.164187 0 1 tcp 1040 ------- 0 0.0 1.0 6 9
+ 0.164187 1 0 ack 40 ------- 0 1.0 0.0 6 13
- 0.164187 1 0 ack 40 ------- 0 1.0 0.0 6 13
r 0.165973 1 0 ack 40 ------- 0 1.0 0.0 3 10
+ 0.165973 0 1 tcp 1040 ------- 0 0.0 1.0 7 14
- 0.165973 0 1 tcp 1040 ------- 0 0.0 1.0 7 14
+ 0.165973 0 1 tcp 1040 ------- 0 0.0 1.0 8 15
r 0.168747 1 0 ack 40 ------- 0 1.0 0.0 4 11
+ 0.168747 0 1 tcp 1040 ------- 0 0.0 1.0 9 16
+ 0.168747 0 1 tcp 1040 ------- 0 0.0 1.0 10 17
- 0.168747 0 1 tcp 1040 ------- 0 0.0 1.0 8 15
r 0.17152 1 0 ack 40 ------- 0 1.0 0.0 5 12
+ 0.17152 0 1 tcp 1040 ------- 0 0.0 1.0 11 18
+ 0.17152 0 1 tcp 1040 ------- 0 0.0 1.0 12 19
- 0.17152 0 1 tcp 1040 ------- 0 0.0 1.0 9 16
r 0.174293 1 0 ack 40 ------- 0 1.0 0.0 6 13
+ 0.174293 0 1 tcp 1040 ------- 0 0.0 1.0 13 20
+ 0.174293 0 1 tcp 1040 ------- 0 0.0 1.0 14 21
- 0.174293 0 1 tcp 1040 ------- 0 0.0 1.0 10 17
- 0.177067 0 1 tcp 1040 ------- 0 0.0 1.0 11 18
r 0.178747 0 1 tcp 1040 ------- 0 0.0 1.0 7 14
+ 0.178747 1 0 ack 40 ------- 0 1.0 0.0 7 22
- 0.178747 1 0 ack 40 ------- 0 1.0 0.0 7 22
- 0.17984 0 1 tcp 1040 ------- 0 0.0 1.0 12 19
r 0.18152 0 1 tcp 1040 ------- 0 0.0 1.0 8 15
+ 0.18152 1 0 ack 40 ------- 0 1.0 0.0 8 23
- 0.18152 1 0 ack 40 ------- 0 1.0 0.0 8 23
- 0.182613 0 1 tcp 1040 ------- 0 0.0 1.0 13 20
r 0.184293 0 1 tcp 1040 ------- 0 0.0 1.0 9 16
+ 0.184293 1 0 ack 40 ------- 0 1.0 0.0 9 24
- 0.184293 1 0 ack 40 ------- 0 1.0 0.0 9 24
- 0.185387 0 1 tcp 1040 ------- 0 0.0 1.0 14 21
r 0.187067 0 1 tcp 1040 ------- 0 0.0 1.0 10 17
+ 0.187067 1 0 ack 40 ------- 0 1.0 0.0 10 25
- 0.187067 1 0 ack 40 ------- 0 1.0 0.0 10 25
r 0.188853 1 0 ack 40 ------- 0 1.0 0.0 7 22
+ 0.188853 0 1 tcp 1040 ------- 0 0.0 1.0 15 26
- 0.188853 0 1 tcp 1040 ------- 0 0.0 1.0 15 26
+ 0.188853 0 1 tcp 1040 ------- 0 0.0 1.0 16 27
r 0.18984 0 1 tcp 1040 ------- 0 0.0 1.0 11 18
+ 0.18984 1 0 ack 40 ------- 0 1.0 0.0 11 28
- 0.18984 1 0 ack 40 ------- 0 1.0 0.0 11 28
r 0.191627 1 0 ack 40 ------- 0 1.0 0.0 8 23
+ 0.191627 0 1 tcp 1040 ------- 0 0.0 1.0 17 29
+ 0.191627 0 1 tcp 1040 ------- 0 0.0 1.0 18 30
- 0.191627 0 1 tcp 1040 ------- 0 0.0 1.0 16 27
r 0.192613 0 1 tcp 1040 ------- 0 0.0 1.0 12 19
+ 0.192613 1 0 ack 40 ------- 0 1.0 0.0 12 31
- 0.192613 1 0 ack 40 ------- 0 1.0 0.0 12 31
r 0.1944 1 0 ack 40 ------- 0 1.0 0.0 9 24
+ 0.1944 0 1 tcp 1040 ------- 0 0.0 1.0 19 32
+ 0.1944 0 1 tcp 1040 ------- 0 0.0 1.0 20 33
- 0.1944 0 1 tcp 1040 ------- 0 0.0 1.0 17 29
r 0.195387 0 1 tcp 1040 ------- 0 0.0 1.0 13 20
+ 0.195387 1 0 ack 40 ------- 0 1.0 0.0 13 34
- 0.195387 1 0 ack 40 ------- 0 1.0 0.0 13 34
r 0.197173 1 0 ack 40 ------- 0 1.0 0.0 10 25
+ 0.197173 0 1 tcp 1040 ------- 0 0.0 1.0 21 35
+ 0.197173 0 1 tcp 1040 ------- 0 0.0 1.0 22 36
- 0.197173 0 1 tcp 1040 ------- 0 0.0 1.0 18 30
r 0.19816 0 1 tcp 1040 ------- 0 0.0 1.0 14 21
+ 0.19816 1 0 ack 40 ------- 0 1.0 0.0 14 37
- 0.19816 1 0 ack 40 ------- 0 1.0 0.0 14 37
r 0.199947 1 0 ack 40 ------- 0 1.0 0.0 11 28
+ 0.199947 0 1 tcp 1040 ------- 0 0.0 1.0 23 38
+ 0.199947 0 1 tcp 1040 ------- 0 0.0 1.0 24 39
- 0.199947 0 1 tcp 1040 ------- 0 0.0 1.0 19 32
r 0.201627 0 1 tcp 1040 ------- 0 0.0 1.0 15 26
+ 0.201627 1 0 ack 40 ------- 0 1.0 0.0 15 40
- 0.201627 1 0 ack 40 ------- 0 1.0 0.0 15 40
r 0.20272 1 0 ack 40 ------- 0 1.0 0.0 12 31
+ 0.20272 0 1 tcp 1040 ------- 0 0.0 1.0 25 41
+ 0.20272 0 1 tcp 1040 ------- 0 0.0 1.0 26 42
- 0.20272 0 1 tcp 1040 ------- 0 0.0 1.0 20 33
r 0.2044 0 1 tcp 1040 ------- 0 0.0 1.0 16 27
+ 0.2044 1 0 ack 40 ------- 0 1.0 0.0 16 43
- 0.2044 1 0 ack 40 ------- 0 1.0 0.0 16 43
r 0.205493 1 0 ack 40 ------- 0 1.0 0.0 13 34
+ 0.205493 0 1 tcp 1040 ------- 0 0.0 1.0 27 44
+ 0.205493 0 1 tcp 1040 ------- 0 0.0 1.0 28 45
- 0.205493 0 1 tcp 1040 ------- 0 0.0 1.0 21 35
r 0.207173 0 1 tcp 1040 ------- 0 0.0 1.0 17 29
+ 0.207173 1 0 ack 40 ------- 0 1.0 0.0 17 46
- 0.207173 1 0 ack 40 ------- 0 1.0 0.0 17 46
r 0.208267 1 0 ack 40 ------- 0 1.0 0.0 14 37
+ 0.208267 0 1 tcp 1040 ------- 0 0.0 1.0 29 47
+ 0.208267 0 1 tcp 1040 ------- 0 0.0 1.0 30 48
- 0.208267 0 1 tcp 1040 ------- 0 0.0 1.0 22 36
r 0.209947 0 1 tcp 1040 ------- 0 0.0 1.0 18 30
+ 0.209947 1 0 ack 40 ------- 0 1.0 0.0 18 49
- 0.209947 1 0 ack 40 ------- 0 1.0 0.0 18 49
- 0.21104 0 1 tcp 1040 ------- 0 0.0 1.0 23 38
r 0.211733 1 0 ack 40 ------- 0 1.0 0.0 15 40
+ 0.211733 0 1 tcp 1040 ------- 0 0.0 1.0 31 50
+ 0.211733 0 1 tcp 1040 ------- 0 0.0 1.0 32 51
r 0.21272 0 1 tcp 1040 ------- 0 0.0 1.0 19 32
+ 0.21272 1 0 ack 40 ------- 0 1.0 0.0 19 52
- 0.21272 1 0 ack 40 ------- 0 1.0 0.0 19 52
- 0.213813 0 1 tcp 1040 ------- 0 0.0 1.0 24 39
r 0.214507 1 0 ack 40 ------- 0 1.0 0.0 16 43
+ 0.214507 0 1 tcp 1040 ------- 0 0.0 1.0 33 53
+ 0.214507 0 1 tcp 1040 ------- 0 0.0 1.0 34 54
r 0.215493 0 1 tcp 1040 ------- 0 0.0 1.0 20 33
+ 0.215493 1 0 ack 40 ------- 0 1.0 0.0 20 55
- 0.215493 1 0 ack 40 ------- 0 1.0 0.0 20 55
- 0.216587 0 1 tcp 1040 ------- 0 0.0 1.0 25 41
r 0.21728 1 0 ack 40 ------- 0 1.0 0.0 17 46
+ 0.21728 0 1 tcp 1040 ------- 0 0.0 1.0 35 56
+ 0.21728 0 1 tcp 1040 ------- 0 0.0 1.0 36 57
r 0.218267 0 1 tcp 1040 ------- 0 0.0 1.0 21 35
+ 0.218267 1 0 ack 40 ------- 0 1.0 0.0 21 58
- 0.218267 1 0 ack 40 ------- 0 1.0 0.0 21 58
- 0.21936 0 1 tcp 1040 ------- 0 0.0 1.0 26 42
r 0.220053 1 0 ack 40 ------- 0 1.0 0.0 18 49
+ 0.220053 0 1 tcp 1040 ------- 0 0.0 1.0 37 59
+ 0.220053 0 1 tcp 1040 ------- 0 0.0 1.0 38 60
r 0.22104 0 1 tcp 1040 ------- 0 0.0 1.0 22 36
+ 0.22104 1 0 ack 40 ------- 0 1.0 0.0 22 61
- 0.22104 1 0 ack 40 ------- 0 1.0 0.0 22 61
- 0.222133 0 1 tcp 1040 ------- 0 0.0 1.0 27 44
r 0.222827 1 0 ack 40 ------- 0 1.0 0.0 19 52
+ 0.222827 0 1 tcp 1040 ------- 0 0.0 1.0 39 62
r 0.223813 0 1 tcp 1040 ------- 0 0.0 1.0 23 38
+ 0.223813 1 0 ack 40 ------- 0 1.0 0.0 23 63
- 0.223813 1 0 ack 40 ------- 0 1.0 0.0 23 63
- 0.224907 0 1 tcp 1040 ------- 0 0.0 1.0 28 45
r 0.2256 1 0 ack 40 ------- 0 1.0 0.0 20 55
+ 0.2256 0 1 tcp 1040 ------- 0 0.0 1.0 40 64
r 0.226587 0 1 tcp 1040 ------- 0 0.0 1.0 24 39
+ 0.226587 1 0 ack 40 ------- 0 1.0 0.0 24 65
- 0.226587 1 0 ack 40 ------- 0 1.0 0.0 24 65
- 0.22768 0 1 tcp 1040 ------- 0 0.0 1.0 29 47
r 0.228373 1 0 ack 40 ------- 0 1.0 0.0 21 58
+ 0.228373 0 1 tcp 1040 ------- 0 0.0 1.0 41 66
r 0.22936 0 1 tcp 1040 ------- 0 0.0 1.0 25 41
+ 0.22936 1 0 ack 40 ------- 0 1.0 0.0 25 67
- 0.22936 1 0 ack 40 ------- 0 1.0 0.0 25 67
- 0.230453 0 1 tcp 1040 ------- 0 0.0 1.0 30 48
r 0.231147 1 0 ack 40 ------- 0 1.0 0.0 22 61
+ 0.231147 0 1 tcp 1040 ------- 0 0.0 1.0 42 68
r 0.232133 0 1 tcp 1040 ------- 0 0.0 1.0 26 42
+ 0.232133 1 0 ack 40 ------- 0 1.0 0.0 26 69
- 0.232133 1 0 ack 40 ------- 0 1.0 0.0 26 69
- 0.233227 0 1 tcp 1040 ------- 0 0.0 1.0 31 50
r 0.23392 1 0 ack 40 ------- 0 1.0 0.0 23 63
+ 0.23392 0 1 tcp 1040 ------- 0 0.0 1.0 43 70
r 0.234907 0 1 tcp 1040 ------- 0 0.0 1.0 27 44
+ 0.234907 1 0 ack 40 ------- 0 1.0 0.0 27 71
- 0.234907 1 0 ack 40 ------- 0 1.0 0.0 27 71
- 0.236 0 1 tcp 1040 ------- 0 0.0 1.0 32 51
r 0.236693 1 0 ack 40 ------- 0 1.0 0.0 24 65
+ 0.236693 0 1 tcp 1040 ------- 0 0.0 1.0 44 72
r 0.23768 0 1 tcp 1040 ------- 0 0.0 1.0 28 45
+ 0.23768 1 0 ack 40 ------- 0 1.0 0.0 28 73
- 0.23768 1 0 ack 40 ------- 0 1.0 0.0 28 73
- 0.238773 0 1 tcp 1040 ------- 0 0.0 1.0 33 53
r 0.239467 1 0 ack 40 ------- 0 1.0 0.0 25 67
+ 0.239467 0 1 tcp 1040 ------- 0 0.0 1.0 45 74
r 0.240453 0 1 tcp 1040 ------- 0 0.0 1.0 29 47
+ 0.240453 1 0 ack 40 ------- 0 1.0 0.0 29 75
- 0.240453 1 0 ack 40 ------- 0 1.0 0.0 29 75
- 0.241547 0 1 tcp 1040 ------- 0 0.0 1.0 34 54
r 0.24224 1 0 ack 40 ------- 0 1.0 0.0 26 69
+ 0.24224 0 1 tcp 1040 ------- 0 0.0 1.0 46 76
r 0.243227 0 1 tcp 1040 ------- 0 0.0 1.0 30 48
+ 0.243227 1 0 ack 40 ------- 0 1.0 0.0 30 77
- 0.243227 1 0 ack 40 ------- 0 1.0 0.0 30 77
- 0.24432 0 1 tcp 1040 ------- 0 0.0 1.0 35 56
r 0.245013 1 0 ack 40 ------- 0 1.0 0.0 27 71
+ 0.245013 0 1 tcp 1040 ------- 0 0.0 1.0 47 78
r 0.246 0 1 tcp 1040 ------- 0 0.0 1.0 31 50
+ 0.246 1 0 ack 40 ------- 0 1.0 0.0 31 79
- 0.246 1 0 ack 40 ------- 0 1.0 0.0 31 79
- 0.247093 0 1 tcp 1040 ------- 0 0.0 1.0 36 57
r 0.247787 1 0 ack 40 ------- 0 1.0 0.0 28 73
+ 0.247787 0 1 tcp 1040 ------- 0 0.0 1.0 48 80
r 0.248773 0 1 tcp 1040 ------- 0 0.0 1.0 32 51
+ 0.248773 1 0 ack 40 ------- 0 1.0 0.0 32 81
- 0.248773 1 0 ack 40 ------- 0 1.0 0.0 32 81
- 0.249867 0 1 tcp 1040 ------- 0 0.0 1.0 37 59
r 0.25056 1 0 ack 40 ------- 0 1.0 0.0 29 75
+ 0.25056 0 1 tcp 1040 ------- 0 0.0 1.0 49 82
r 0.251547 0 1 tcp 1040 ------- 0 0.0 1.0 33 53
+ 0.251547 1 0 ack 40 ------- 0 1.0 0.0 33 83
- 0.251547 1 0 ack 40 ------- 0 1.0 0.0 33 83
- 0.25264 0 1 tcp 1040 ------- 0 0.0 1.0 38 60
r 0.253333 1 0 ack 40 ------- 0 1.0 0.0 30 77
+ 0.253333 0 1 tcp 1040 ------- 0 0.0 1.0 50 84
r 0.25432 0 1 tcp 1040 ------- 0 0.0 1.0 34 54
+ 0.25432 1 0 ack 40 ------- 0 1.0 0.0 34 85
- 0.25432 1 0 ack 40 ------- 0 1.0 0.0 34 85
- 0.255413 0 1 tcp 1040 ------- 0 0.0 1.0 39 62
r 0.256107 1 0 ack 40 ------- 0 1.0 0.0 31 79
+ 0.256107 0 1 tcp 1040 ------- 0 0.0 1.0 51 86
r 0.257093 0 1 tcp 1040 ------- 0 0.0 1.0 35 56
+ 0.257093 1 0 ack 40 ------- 0 1.0 0.0 35 87
- 0.257093 1 0 ack 40 ------- 0 1.0 0.0 35 87
- 0.258187 0 1 tcp 1040 ------- 0 0.0 1.0 40 64
r 0.25888 1 0 ack 40 ------- 0 1.0 0.0 32 81
+ 0.25888 0 1 tcp 1040 ------- 0 0.0 1.0 52 88
r 0.259867 0 1 tcp 1040 ------- 0 0.0 1.0 36 57
+ 0.259867 1 0 ack 40 ------- 0 1.0 0.0 36 89
- 0.259867 1 0 ack 40 ------- 0 1.0 0.0 36 89
- 0.26096 0 1 tcp 1040 ------- 0 0.0 1.0 41 66
r 0.261653 1 0 ack 40 ------- 0 1.0 0.0 33 83
+ 0.261653 0 1 tcp 1040 ------- 0 0.0 1.0 53 90
r 0.26264 0 1 tcp 1040 ------- 0 0.0 1.0 37 59
+ 0.26264 1 0 ack 40 ------- 0 1.0 0.0 37 91
- 0.26264 1 0 ack 40 ------- 0 1.0 0.0 37 91
- 0.263733 0 1 tcp 1040 ------- 0 0.0 1.0 42 68
r 0.264427 1 0 ack 40 ------- 0 1.0 0.0 34 85
+ 0.264427 0 1 tcp 1040 ------- 0 0.0 1.0 54 92
r 0.265413 0 1 tcp 1040 ------- 0 0.0 1.0 38 60
+ 0.265413 1 0 ack 40 ------- 0 1.0 0.0 38 93
- 0.265413 1 0 ack 40 ------- 0 1.0 0.0 38 93
- 0.266507 0 1 tcp 1040 ------- 0 0.0 1.0 43 70
r 0.2672 1 0 ack 40 ------- 0 1.0 0.0 35 87
+ 0.2672 0 1 tcp 1040 ------- 0 0.0 1.0 55 94
r 0.268187 0 1 tcp 1040 ------- 0 0.0 1.0 39 62
+ 0.268187 1 0 ack 40 ------- 0 1.0 0.0 39 95
- 0.268187 1 0 ack 40 ------- 0 1.0 0.0 39 95
- 0.26928 0 1 tcp 1040 ------- 0 0.0 1.0 44 72
r 0.269973 1 0 ack 40 ------- 0 1.0 0.0 36 89
+ 0.269973 0 1 tcp 1040 ------- 0 0.0 1.0 56 96
r 0.27096 0 1 tcp 1040 ------- 0 0.0 1.0 40 64
+ 0.27096 1 0 ack 40 ------- 0 1.0 0.0 40 97
- 0.27096 1 0 ack 40 ------- 0 1.0 0.0 40 97
- 0.272053 0 1 tcp 1040 ------- 0 0.0 1.0 45 74
r 0.272747 1 0 ack 40 ------- 0 1.0 0.0 37 91
+ 0.272747 0 1 tcp 1040 ------- 0 0.0 1.0 57 98
r 0.273733 0 1 tcp 1040 ------- 0 0.0 1.0 41 66
+ 0.273733 1 0 ack 40 ------- 0 1.0 0.0 41 99
- 0.273733 1 0 ack 40 ------- 0 1.0 0.0 41 99
- 0.274827 0 1 tcp 1040 ------- 0 0.0 1.0 46 76
r 0.27552 1 0 ack 40 ------- 0 1.0 0.0 38 93
+ 0.27552 0 1 tcp 1040 ------- 0 0.0 1.0 58 100
r 0.276507 0 1 tcp 1040 ------- 0 0.0 1.0 42 68
+ 0.276507 1 0 ack 40 ------- 0 1.0 0.0 42 101
- 0.276507 1 0 ack 40 ------- 0 1.0 0.0 42 101
- 0.2776 0 1 tcp 1040 ------- 0 0.0 1.0 47 78
r 0.278293 1 0 ack 40 ------- 0 1.0 0.0 39 95
+ 0.278293 0 1 tcp 1040 ------- 0 0.0 1.0 59 102
r 0.27928 0 1 tcp 1040 ------- 0 0.0 1.0 43 70
+ 0.27928 1 0 ack 40 ------- 0 1.0 0.0 43 103
- 0.27928 1 0 ack 40 ------- 0 1.0 0.0 43 103
- 0.280373 0 1 tcp 1040 ------- 0 0.0 1.0 48 80
r 0.281067 1 0 ack 40 ------- 0 1.0 0.0 40 97
+ 0.281067 0 1 tcp 1040 ------- 0 0.0 1.0 60 104
r 0.282053 0 1 tcp 1040 ------- 0 0.0 1.0 44 72
+ 0.282053 1 0 ack 40 ------- 0 1.0 0.0 44 105
- 0.282053 1 0 ack 40 ------- 0 1.0 0.0 44 105
- 0.283147 0 1 tcp 1040 ------- 0 0.0 1.0 49 82
r 0.28384 1 0 ack 40 ------- 0 1.0 0.0 41 99
+ 0.28384 0 1 tcp 1040 ------- 0 0.0 1.0 61 106
r 0.284827 0 1 tcp 1040 ------- 0 0.0 1.0 45 74
+ 0.284827 1 0 ack 40 ------- 0 1.0 0.0 45 107
- 0.284827 1 0 ack 40 ------- 0 1.0 0.0 45 107
- 0.28592 0 1 tcp 1040 ------- 0 0.0 1.0 50 84
r 0.286613 1 0 ack 40 ------- 0 1.0 0.0 42 101
+ 0.286613 0 1 tcp 1040 ------- 0 0.0 1.0 62 108
r 0.2876 0 1 tcp 1040 ------- 0 0.0 1.0 46 76
+ 0.2876 1 0 ack 40 ------- 0 1.0 0.0 46 109
- 0.2876 1 0 ack 40 ------- 0 1.0 0.0 46 109
- 0.288693 0 1 tcp 1040 ------- 0 0.0 1.0 51 86
r 0.289387 1 0 ack 40 ------- 0 1.0 0.0 43 103
+ 0.289387 0 1 tcp 1040 ------- 0 0.0 1.0 63 110
r 0.290373 0 1 tcp 1040 ------- 0 0.0 1.0 47 78
+ 0.290373 1 0 ack 40 ------- 0 1.0 0.0 47 111
- 0.290373 1 0 ack 40 ------- 0 1.0 0.0 47 111
- 0.291467 0 1 tcp 1040 ------- 0 0.0 1.0 52 88
r 0.29216 1 0 ack 40 ------- 0 1.0 0.0 44 105
+ 0.29216 0 1 tcp 1040 ------- 0 0.0 1.0 64 112
r 0.293147 0 1 tcp 1040 ------- 0 0.0 1.0 48 80
+ 0.293147 1 0 ack 40 ------- 0 1.0 0.0 48 113
- 0.293147 1 0 ack 40 ------- 0 1.0 0.0 48 113
- 0.29424 0 1 tcp 1040 ------- 0 0.0 1.0 53 90
r 0.294933 1 0 ack 40 ------- 0 1.0 0.0 45 107
+ 0.294933 0 1 tcp 1040 ------- 0 0.0 1.0 65 114
r 0.29592 0 1 tcp 1040 ------- 0 0.0 1.0 49 82
+ 0.29592 1 0 ack 40 ------- 0 1.0 0.0 49 115
- 0.29592 1 0 ack 40 ------- 0 1.0 0.0 49 115
- 0.297013 0 1 tcp 1040 ------- 0 0.0 1.0 54 92
r 0.297707 1 0 ack 40 ------- 0 1.0 0.0 46 109
+ 0.297707 0 1 tcp 1040 ------- 0 0.0 1.0 66 116
r 0.298693 0 1 tcp 1040 ------- 0 0.0 1.0 50 84
+ 0.298693 1 0 ack 40 ------- 0 1.0 0.0 50 117
- 0.298693 1 0 ack 40 ------- 0 1.0 0.0 50 117
- 0.299787 0 1 tcp 1040 ------- 0 0.0 1.0 55 94
r 0.30048 1 0 ack 40 ------- 0 1.0 0.0 47 111
+ 0.30048 0 1 tcp 1040 ------- 0 0.0 1.0 67 118
r 0.301467 0 1 tcp 1040 ------- 0 0.0 1.0 51 86
+ 0.301467 1 0 ack 40 ------- 0 1.0 0.0 51 119
- 0.301467 1 0 ack 40 ------- 0 1.0 0.0 51 119
- 0.30256 0 1 tcp 1040 ------- 0 0.0 1.0 56 96
r 0.303253 1 0 ack 40 ------- 0 1.0 0.0 48 113
+ 0.303253 0 1 tcp 1040 ------- 0 0.0 1.0 68 120
r 0.30424 0 1 tcp 1040 ------- 0 0.0 1.0 52 88
+ 0.30424 1 0 ack 40 ------- 0 1.0 0.0 52 121
- 0.30424 1 0 ack 40 ------- 0 1.0 0.0 52 121
- 0.305333 0 1 tcp 1040 ------- 0 0.0 1.0 57 98
r 0.306027 1 0 ack 40 ------- 0 1.0 0.0 49 115
+ 0.306027 0 1 tcp 1040 ------- 0 0.0 1.0 69 122
r 0.307013 0 1 tcp 1040 ------- 0 0.0 1.0 53 90
+ 0.307013 1 0 ack 40 ------- 0 1.0 0.0 53 123
- 0.307013 1 0 ack 40 ------- 0 1.0 0.0 53 123
- 0.308107 0 1 tcp 1040 ------- 0 0.0 1.0 58 100
r 0.3088 1 0 ack 40 ------- 0 1.0 0.0 50 117
+ 0.3088 0 1 tcp 1040 ------- 0 0.0 1.0 70 124
r 0.309787 0 1 tcp 1040 ------- 0 0.0 1.0 54 92
+ 0.309787 1 0 ack 40 ------- 0 1.0 0.0 54 125
- 0.309787 1 0 ack 40 ------- 0 1.0 0.0 54 125
- 0.31088 0 1 tcp 1040 ------- 0 0.0 1.0 59 102
r 0.311573 1 0 ack 40 ------- 0 1.0 0.0 51 119
+ 0.311573 0 1 tcp 1040 ------- 0 0.0 1.0 71 126
r 0.31256 0 1 tcp 1040 ------- 0 0.0 1.0 55 94
+ 0.31256 1 0 ack 40 ------- 0 1.0 0.0 55 127
- 0.31256 1 0 ack 40 ------- 0 1.0 0.0 55 127
- 0.313653 0 1 tcp 1040 ------- 0 0.0 1.0 60 104
r 0.314347 1 0 ack 40 ------- 0 1.0 0.0 52 121
+ 0.314347 0 1 tcp 1040 ------- 0 0.0 1.0 72 128
r 0.315333 0 1 tcp 1040 ------- 0 0.0 1.0 56 96
+ 0.315333 1 0 ack 40 ------- 0 1.0 0.0 56 129
- 0.315333 1 0 ack 40 ------- 0 1.0 0.0 56 129
- 0.316427 0 1 tcp 1040 ------- 0 0.0 1.0 61 106
r 0.31712 1 0 ack 40 ------- 0 1.0 0.0 53 123
+ 0.31712 0 1 tcp 1040 ------- 0 0.0 1.0 73 130
r 0.318107 0 1 tcp 1040 ------- 0 0.0 1.0 57 98
+ 0.318107 1 0 ack 40 ------- 0 1.0 0.0 57 131
- 0.318107 1 0 ack 40 ------- 0 1.0 0.0 57 131
- 0.3192 0 1 tcp 1040 ------- 0 0.0 1.0 62 108
r 0.319893 1 0 ack 40 ------- 0 1.0 0.0 54 125
+ 0.319893 0 1 tcp 1040 ------- 0 0.0 1.0 74 132
r 0.32088 0 1 tcp 1040 ------- 0 0.0 1.0 58 100
+ 0.32088 1 0 ack 40 ------- 0 1.0 0.0 58 133
- 0.32088 1 0 ack 40 ------- 0 1.0 0.0 58 133
- 0.321973 0 1 tcp 1040 ------- 0 0.0 1.0 63 110
r 0.322667 1 0 ack 40 ------- 0 1.0 0.0 55 127
+ 0.322667 0 1 tcp 1040 ------- 0 0.0 1.0 75 134
r 0.323653 0 1 tcp 1040 ------- 0 0.0 1.0 59 102
+ 0.323653 1 0 ack 40 ------- 0 1.0 0.0 59 135
- 0.323653 1 0 ack 40 ------- 0 1.0 0.0 59 135
- 0.324747 0 1 tcp 1040 ------- 0 0.0 1.0 64 112
r 0.32544 1 0 ack 40 ------- 0 1.0 0.0 56 129
+ 0.32544 0 1 tcp 1040 ------- 0 0.0 1.0 76 136
r 0.326427 0 1 tcp 1040 ------- 0 0.0 1.0 60 104
+ 0.326427 1 0 ack 40 ------- 0 1.0 0.0 60 137
- 0.326427 1 0 ack 40 ------- 0 1.0 0.0 60 137
- 0.32752 0 1 tcp 1040 ------- 0 0.0 1.0 65 114
r 0.328213 1 0 ack 40 ------- 0 1.0 0.0 57 131
+ 0.328213 0 1 tcp 1040 ------- 0 0.0 1.0 77 138
r 0.3292 0 1 tcp 1040 ------- 0 0.0 1.0 61 106
+ 0.3292 1 0 ack 40 ------- 0 1.0 0.0 61 139
- 0.3292 1 0 ack 40 ------- 0 1.0 0.0 61 139
- 0.330293 0 1 tcp 1040 ------- 0 0.0 1.0 66 116
r 0.330987 1 0 ack 40 ------- 0 1.0 0.0 58 133
+ 0.330987 0 1 tcp 1040 ------- 0 0.0 1.0 78 140
r 0.331973 0 1 tcp 1040 ------- 0 0.0 1.0 62 108
+ 0.331973 1 0 ack 40 ------- 0 1.0 0.0 62 141
- 0.331973 1 0 ack 40 ------- 0 1.0 0.0 62 141
- 0.333067 0 1 tcp 1040 ------- 0 0.0 1.0 67 118
r 0.33376 1 0 ack 40 ------- 0 1.0 0.0 59 135
+ 0.33376 0 1 tcp 1040 ------- 0 0.0 1.0 79 142
r 0.334747 0 1 tcp 1040 ------- 0 0.0 1.0 63 110
+ 0.334747 1 0 ack 40 ------- 0 1.0 0.0 63 143
- 0.334747 1 0 ack 40 ------- 0 1.0 0.0 63 143
- 0.33584 0 1 tcp 1040 ------- 0 0.0 1.0 68 120
r 0.336533 1 0 ack 40 ------- 0 1.0 0.0 60 137
+ 0.336533 0 1 tcp 1040 ------- 0 0.0 1.0 80 144
r 0.33752 0 1 tcp 1040 ------- 0 0.0 1.0 64 112
+ 0.33752 1 0 ack 40 ------- 0 1.0 0.0 64 145
- 0.33752 1 0 ack 40 ------- 0 1.0 0.0 64 145
- 0.338613 0 1 tcp 1040 ------- 0 0.0 1.0 69 122
r 0.339307 1 0 ack 40 ------- 0 1.0 0.0 61 139
+ 0.339307 0 1 tcp 1040 ------- 0 0.0 1.0 81 146
r 0.340293 0 1 tcp 1040 ------- 0 0.0 1.0 65 114
+ 0.340293 1 0 ack 40 ------- 0 1.0 0.0 65 147
- 0.340293 1 0 ack 40 ------- 0 1.0 0.0 65 147
- 0.341387 0 1 tcp 1040 ------- 0 0.0 1.0 70 124
r 0.34208 1 0 ack 40 ------- 0 1.0 0.0 62 141
+ 0.34208 0 1 tcp 1040 ------- 0 0.0 1.0 82 148
r 0.343067 0 1 tcp 1040 ------- 0 0.0 1.0 66 116
+ 0.343067 1 0 ack 40 ------- 0 1.0 0.0 66 149
- 0.343067 1 0 ack 40 ------- 0 1.0 0.0 66 149
- 0.34416 0 1 tcp 1040 ------- 0 0.0 1.0 71 126
r 0.344853 1 0 ack 40 ------- 0 1.0 0.0 63 143
+ 0.344853 0 1 tcp 1040 ------- 0 0.0 1.0 83 150
r 0.34584 0 1 tcp 1040 ------- 0 0.0 1.0 67 118
+ 0.34584 1 0 ack 40 ------- 0 1.0 0.0 67 151
- 0.34584 1 0 ack 40 ------- 0 1.0 0.0 67 151
- 0.346933 0 1 tcp 1040 ------- 0 0.0 1.0 72 128
r 0.347627 1 0 ack 40 ------- 0 1.0 0.0 64 145
+ 0.347627 0 1 tcp 1040 ------- 0 0.0 1.0 84 152
r 0.348613 0 1 tcp 1040 ------- 0 0.0 1.0 68 120
+ 0.348613 1 0 ack 40 ------- 0 1.0 0.0 68 153
- 0.348613 1 0 ack 40 ------- 0 1.0 0.0 68 153
- 0.349707 0 1 tcp 1040 ------- 0 0.0 1.0 73 130
r 0.3504 1 0 ack 40 ------- 0 1.0 0.0 65 147
+ 0.3504 0 1 tcp 1040 ------- 0 0.0 1.0 85 154
r 0.351387 0 1 tcp 1040 ------- 0 0.0 1.0 69 122
+ 0.351387 1 0 ack 40 ------- 0 1.0 0.0 69 155
- 0.351387 1 0 ack 40 ------- 0 1.0 0.0 69 155
- 0.35248 0 1 tcp 1040 ------- 0 0.0 1.0 74 132
r 0.353173 1 0 ack 40 ------- 0 1.0 0.0 66 149
+ 0.353173 0 1 tcp 1040 ------- 0 0.0 1.0 86 156
r 0.35416 0 1 tcp 1040 ------- 0 0.0 1.0 70 124
+ 0.35416 1 0 ack 40 ------- 0 1.0 0.0 70 157
- 0.35416 1 0 ack 40 ------- 0 1.0 0.0 70 157
- 0.355253 0 1 tcp 1040 ------- 0 0.0 1.0 75 134
r 0.355947 1 0 ack 40 ------- 0 1.0 0.0 67 151
+ 0.355947 0 1 tcp 1040 ------- 0 0.0 1.0 87 158
r 0.356933 0 1 tcp 1040 ------- 0 0.0 1.0 71 126
+ 0.356933 1 0 ack 40 ------- 0 1.0 0.0 71 159
- 0.356933 1 0 ack 40 ------- 0 1.0 0.0 71 159
- 0.358027 0 1 tcp 1040 ------- 0 0.0 1.0 76 136
r 0.35872 1 0 ack 40 ------- 0 1.0 0.0 68 153
+ 0.35872 0 1 tcp 1040 ------- 0 0.0 1.0 88 160
r 0.359707 0 1 tcp 1040 ------- 0 0.0 1.0 72 128
+ 0.359707 1 0 ack 40 ------- 0 1.0 0.0 72 161
- 0.359707 1 0 ack 40 ------- 0 1.0 0.0 72 161
- 0.3608 0 1 tcp 1040 ------- 0 0.0 1.0 77 138
r 0.361493 1 0 ack 40 ------- 0 1.0 0.0 69 155
+ 0.361493 0 1 tcp 1040 ------- 0 0.0 1.0 89 162
r 0.36248 0 1 tcp 1040 ------- 0 0.0 1.0 73 130
+ 0.36248 1 0 ack 40 ------- 0 1.0 0.0 73 163
- 0.36248 1 0 ack 40 ------- 0 1.0 0.0 73 163
- 0.363573 0 1 tcp 1040 ------- 0 0.0 1.0 78 140
r 0.364267 1 0 ack 40 ------- 0 1.0 0.0 70 157
+ 0.364267 0 1 tcp 1040 ------- 0 0.0 1.0 90 164
r 0.365253 0 1 tcp 1040 ------- 0 0.0 1.0 74 132
+ 0.365253 1 0 ack 40 ------- 0 1.0 0.0 74 165
- 0.365253 1 0 ack 40 ------- 0 1.0 0.0 74 165
- 0.366347 0 1 tcp 1040 ------- 0 0.0 1.0 79 142
r 0.36704 1 0 ack 40 ------- 0 1.0 0.0 71 159
+ 0.36704 0 1 tcp 1040 ------- 0 0.0 1.0 91 166
r 0.368027 0 1 tcp 1040 ------- 0 0.0 1.0 75 134
+ 0.368027 1 0 ack 40 ------- 0 1.0 0.0 75 167
- 0.368027 1 0 ack 40 ------- 0 1.0 0.0 75 167
- 0.36912 0 1 tcp 1040 ------- 0 0.0 1.0 80 144
r 0.369813 1 0 ack 40 ------- 0 1.0 0.0 72 161
+ 0.369813 0 1 tcp 1040 ------- 0 0.0 1.0 92 168
r 0.3708 0 1 tcp 1040 ------- 0 0.0 1.0 76 136
+ 0.3708 1 0 ack 40 ------- 0 1.0 0.0 76 169
- 0.3708 1 0 ack 40 ------- 0 1.0 0.0 76 169
- 0.371893 0 1 tcp 1040 ------- 0 0.0 1.0 81 146
r 0.372587 1 0 ack 40 ------- 0 1.0 0.0 73 163
+ 0.372587 0 1 tcp 1040 ------- 0 0.0 1.0 93 170
r 0.373573 0 1 tcp 1040 ------- 0 0.0 1.0 77 138
+ 0.373573 1 0 ack 40 ------- 0 1.0 0.0 77 171
- 0.373573 1 0 ack 40 ------- 0 1.0 0.0 77 171
- 0.374667 0 1 tcp 1040 ------- 0 0.0 1.0 82 148
r 0.37536 1 0 ack 40 ------- 0 1.0 0.0 74 165
+ 0.37536 0 1 tcp 1040 ------- 0 0.0 1.0 94 172
r 0.376347 0 1 tcp 1040 ------- 0 0.0 1.0 78 140
+ 0.376347 1 0 ack 40 ------- 0 1.0 0.0 78 173
- 0.376347 1 0 ack 40 ------- 0 1.0 0.0 78 173
- 0.37744 0 1 tcp 1040 ------- 0 0.0 1.0 83 150
r 0.378133 1 0 ack 40 ------- 0 1.0 0.0 75 167
+ 0.378133 0 1 tcp 1040 ------- 0 0.0 1.0 95 174
r 0.37912 0 1 tcp 1040 ------- 0 0.0 1.0 79 142
+ 0.37912 1 0 ack 40 ------- 0 1.0 0.0 79 175
- 0.37912 1 0 ack 40 ------- 0 1.0 0.0 79 175
- 0.380213 0 1 tcp 1040 ------- 0 0.0 1.0 84 152
r 0.380907 1 0 ack 40 ------- 0 1.0 0.0 76 169
+ 0.380907 0 1 tcp 1040 ------- 0 0.0 1.0 96 176
r 0.381893 0 1 tcp 1040 ------- 0 0.0 1.0 80 144
+ 0.381893 1 0 ack 40 ------- 0 1.0 0.0 80 177
- 0.381893 1 0 ack 40 ------- 0 1.0 0.0 80 177
- 0.382987 0 1 tcp 1040 ------- 0 0.0 1.0 85 154
r 0.38368 1 0 ack 40 ------- 0 1.0 0.0 77 171
+ 0.38368 0 1 tcp 1040 ------- 0 0.0 1.0 97 178
r 0.384667 0 1 tcp 1040 ------- 0 0.0 1.0 81 146
+ 0.384667 1 0 ack 40 ------- 0 1.0 0.0 81 179
- 0.384667 1 0 ack 40 ------- 0 1.0 0.0 81 179
- 0.38576 0 1 tcp 1040 ------- 0 0.0 1.0 86 156
r 0.386453 1 0 ack 40 ------- 0 1.0 0.0 78 173
+ 0.386453 0 1 tcp 1040 ------- 0 0.0 1.0 98 180
r 0.38744 0 1 tcp 1040 ------- 0 0.0 1.0 82 148
+ 0.38744 1 0 ack 40 ------- 0 1.0 0.0 82 181
- 0.38744 1 0 ack 40 ------- 0 1.0 0.0 82 181
- 0.388533 0 1 tcp 1040 ------- 0 0.0 1.0 87 158
r 0.389227 1 0 ack 40 ------- 0 1.0 0.0 79 175
+ 0.389227 0 1 tcp 1040 ------- 0 0.0 1.0 99 182
r 0.390213 0 1 tcp 1040 ------- 0 0.0 1.0 83 150
+ 0.390213 1 0 ack 40 ------- 0 1.0 0.0 83 183
- 0.390213 1 0 ack 40 ------- 0 1.0 0.0 83 183
- 0.391307 0 1 tcp 1040 ------- 0 0.0 1.0 88 160
r 0.392 1 0 ack 40 ------- 0 1.0 0.0 80 177
+ 0.392 0 1 tcp 1040 ------- 0 0.0 1.0 100 184
r 0.392987 0 1 tcp 1040 ------- 0 0.0 1.0 84 152
+ 0.392987 1 0 ack 40 ------- 0 1.0 0.0 84 185
- 0.392987 1 0 ack 40 ------- 0 1.0 0.0 84 185
- 0.39408 0 1 tcp 1040 ------- 0 0.0 1.0 89 162
r 0.394773 1 0 ack 40 ------- 0 1.0 0.0 81 179
+ 0.394773 0 1 tcp 1040 ------- 0 0.0 1.0 101 186
r 0.39576 0 1 tcp 1040 ------- 0 0.0 1.0 85 154
+ 0.39576 1 0 ack 40 ------- 0 1.0 0.0 85 187
- 0.39576 1 0 ack 40 ------- 0 1.0 0.0 85 187
- 0.396853 0 1 tcp 1040 ------- 0 0.0 1.0 90 164
r 0.397547 1 0 ack 40 ------- 0 1.0 0.0 82 181
+ 0.397547 0 1 tcp 1040 ------- 0 0.0 1.0 102 188
r 0.398533 0 1 tcp 1040 ------- 0 0.0 1.0 86 156
+ 0.398533 1 0 ack 40 ------- 0 1.0 0.0 86 189
- 0.398533 1 0 ack 40 ------- 0 1.0 0.0 86 189
- 0.399627 0 1 tcp 1040 ------- 0 0.0 1.0 91 166
r 0.40032 1 0 ack 40 ------- 0 1.0 0.0 83 183
+ 0.40032 0 1 tcp 1040 ------- 0 0.0 1.0 103 190
r 0.401307 0 1 tcp 1040 ------- 0 0.0 1.0 87 158
+ 0.401307 1 0 ack 40 ------- 0 1.0 0.0 87 191
- 0.401307 1 0 ack 40 ------- 0 1.0 0.0 87 191
- 0.4024 0 1 tcp 1040 ------- 0 0.0 1.0 92 168
r 0.403093 1 0 ack 40 ------- 0 1.0 0.0 84 185
+ 0.403093 0 1 tcp 1040 ------- 0 0.0 1.0 104 192
r 0.40408 0 1 tcp 1040 ------- 0 0.0 1.0 88 160
+ 0.40408 1 0 ack 40 ------- 0 1.0 0.0 88 193
- 0.40408 1 0 ack 40 ------- 0 1.0 0.0 88 193
- 0.405173 0 1 tcp 1040 ------- 0 0.0 1.0 93 170
r 0.405867 1 0 ack 40 ------- 0 1.0 0.0 85 187
+ 0.405867 0 1 tcp 1040 ------- 0 0.0 1.0 105 194
r 0.406853 0 1 tcp 1040 ------- 0 0.0 1.0 89 162
+ 0.406853 1 0 ack 40 ------- 0 1.0 0.0 89 195
- 0.406853 1 0 ack 40 ------- 0 1.0 0.0 89 195
- 0.407947 0 1 tcp 1040 ------- 0 0.0 1.0 94 172
r 0.40864 1 0 ack 40 ------- 0 1.0 0.0 86 189
+ 0.40864 0 1 tcp 1040 ------- 0 0.0 1.0 106 196
r 0.409627 0 1 tcp 1040 ------- 0 0.0 1.0 90 164
+ 0.409627 1 0 ack 40 ------- 0 1.0 0.0 90 197
- 0.409627 1 0 ack 40 ------- 0 1.0 0.0 90 197
- 0.41072 0 1 tcp 1040 ------- 0 0.0 1.0 95 174
r 0.411413 1 0 ack 40 ------- 0 1.0 0.0 87 191
+ 0.411413 0 1 tcp 1040 ------- 0 0.0 1.0 107 198
r 0.4124 0 1 tcp 1040 ------- 0 0.0 1.0 91 166
+ 0.4124 1 0 ack 40 ------- 0 1.0 0.0 91 199
- 0.4124 1 0 ack 40 ------- 0 1.0 0.0 91 199
- 0.413493 0 1 tcp 1040 ------- 0 0.0 1.0 96 176
r 0.414187 1 0 ack 40 ------- 0 1.0 0.0 88 193
+ 0.414187 0 1 tcp 1040 ------- 0 0.0 1.0 108 200
r 0.415173 0 1 tcp 1040 ------- 0 0.0 1.0 92 168
+ 0.415173 1 0 ack 40 ------- 0 1.0 0.0 92 201
- 0.415173 1 0 ack 40 ------- 0 1.0 0.0 92 201
- 0.416267 0 1 tcp 1040 ------- 0 0.0 1.0 97 178
r 0.41696 1 0 ack 40 ------- 0 1.0 0.0 89 195
+ 0.41696 0 1 tcp 1040 ------- 0 0.0 1.0 109 202
r 0.417947 0 1 tcp 1040 ------- 0 0.0 1.0 93 170
+ 0.417947 1 0 ack 40 ------- 0 1.0 0.0 93 203
- 0.417947 1 0 ack 40 ------- 0 1.0 0.0 93 203
- 0.41904 0 1 tcp 1040 ------- 0 0.0 1.0 98 180
r 0.419733 1 0 ack 40 ------- 0 1.0 0.0 90 197
+ 0.419733 0 1 tcp 1040 ------- 0 0.0 1.0 110 204
r 0.42072 0 1 tcp 1040 ------- 0 0.0 1.0 94 172
+ 0.42072 1 0 ack 40 ------- 0 1.0 0.0 94 205
- 0.42072 1 0 ack 40 ------- 0 1.0 0.0 94 205
- 0.421813 0 1 tcp 1040 ------- 0 0.0 1.0 99 182
r 0.422507 1 0 ack 40 ------- 0 1.0 0.0 91 199
+ 0.422507 0 1 tcp 1040 ------- 0 0.0 1.0 111 206
r 0.423493 0 1 tcp 1040 ------- 0 0.0 1.0 95 174
+ 0.423493 1 0 ack 40 ------- 0 1.0 0.0 95 207
- 0.423493 1 0 ack 40 ------- 0 1.0 0.0 95 207
- 0.424587 0 1 tcp 1040 ------- 0 0.0 1.0 100 184
r 0.42528 1 0 ack 40 ------- 0 1.0 0.0 92 201
+ 0.42528 0 1 tcp 1040 ------- 0 0.0 1.0 112 208
r 0.426267 0 1 tcp 1040 ------- 0 0.0 1.0 96 176
+ 0.426267 1 0 ack 40 ------- 0 1.0 0.0 96 209
- 0.426267 1 0 ack 40 ------- 0 1.0 0.0 96 209
- 0.42736 0 1 tcp 1040 ------- 0 0.0 1.0 101 186
r 0.428053 1 0 ack 40 ------- 0 1.0 0.0 93 203
+ 0.428053 0 1 tcp 1040 ------- 0 0.0 1.0 113 210
r 0.42904 0 1 tcp 1040 ------- 0 0.0 1.0 97 178
+ 0.42904 1 0 ack 40 ------- 0 1.0 0.0 97 211
- 0.42904 1 0 ack 40 ------- 0 1.0 0.0 97 211
- 0.430133 0 1 tcp 1040 ------- 0 0.0 1.0 102 188
r 0.430827 1 0 ack 40 ------- 0 1.0 0.0 94 205
+ 0.430827 0 1 tcp 1040 ------- 0 0.0 1.0 114 212
r 0.431813 0 1 tcp 1040 ------- 0 0.0 1.0 98 180
+ 0.431813 1 0 ack 40 ------- 0 1.0 0.0 98 213
- 0.431813 1 0 ack 40 ------- 0 1.0 0.0 98 213
- 0.432907 0 1 tcp 1040 ------- 0 0.0 1.0 103 190
r 0.4336 1 0 ack 40 ------- 0 1.0 0.0 95 207
+ 0.4336 0 1 tcp 1040 ------- 0 0.0 1.0 115 214
r 0.434587 0 1 tcp 1040 ------- 0 0.0 1.0 99 182
+ 0.434587 1 0 ack 40 ------- 0 1.0 0.0 99 215
- 0.434587 1 0 ack 40 ------- 0 1.0 0.0 99 215
- 0.43568 0 1 tcp 1040 ------- 0 0.0 1.0 104 192
r 0.436373 1 0 ack 40 ------- 0 1.0 0.0 96 209
+ 0.436373 0 1 tcp 1040 ------- 0 0.0 1.0 116 216
r 0.43736 0 1 tcp 1040 ------- 0 0.0 1.0 100 184
+ 0.43736 1 0 ack 40 ------- 0 1.0 0.0 100 217
- 0.43736 1 0 ack 40 ------- 0 1.0 0.0 100 217
- 0.438453 0 1 tcp 1040 ------- 0 0.0 1.0 105 194
r 0.439147 1 0 ack 40 ------- 0 1.0 0.0 97 211
+ 0.439147 0 1 tcp 1040 ------- 0 0.0 1.0 117 218
r 0.440133 0 1 tcp 1040 ------- 0 0.0 1.0 101 186
+ 0.440133 1 0 ack 40 ------- 0 1.0 0.0 101 219
- 0.440133 1 0 ack 40 ------- 0 1.0 0.0 101 219
- 0.441227 0 1 tcp 1040 ------- 0 0.0 1.0 106 196
r 0.44192 1 0 ack 40 ------- 0 1.0 0.0 98 213
+ 0.44192 0 1 tcp 1040 ------- 0 0.0 1.0 118 220
r 0.442907 0 1 tcp 1040 ------- 0 0.0 1.0 102 188
+ 0.442907 1 0 ack 40 ------- 0 1.0 0.0 102 221
- 0.442907 1 0 ack 40 ------- 0 1.0 0.0 102 221
- 0.444 0 1 tcp 1040 ------- 0 0.0 1.0 107 198
r 0.444693 1 0 ack 40 ------- 0 1.0 0.0 99 215
+ 0.444693 0 1 tcp 1040 ------- 0 0.0 1.0 119 222