V -t * -v 1.0a5 -a 0
A -t * -n 1 -p 0 -o 0x7fffffff -c 30 -a 1
A -t * -h 1 -m 1073741823 -s 0
n -t * -a 0 -s 0 -S UP -v circle -c black -i black
n -t * -a 1 -s 1 -S UP -v circle -c black -i black
n -t * -a 2 -s 2 -S UP -v circle -c black -i black
n -t * -a 3 -s 3 -S UP -v circle -c black -i black
l -t * -s 0 -d 1 -S UP -r 3000000 -D 0.01 -c black
l -t * -s 1 -d 2 -S UP -r 3000000 -D 0.01 -c black
l -t * -s 2 -d 3 -S UP -r 3000000 -D 0.01 -c black
l -t * -s 3 -d 0 -S UP -r 3000000 -D 0.01 -c black
+ -t 0.1 -s 0 -d 1 -p tcp -e 40 -c 0 -i 0 -a 0 -x {0.0 1.0 0 ------- null}
- -t 0.1 -s 0 -d 1 -p tcp -e 40 -c 0 -i 0 -a 0 -x {0.0 1.0 0 ------- null}
h -t 0.1 -s 0 -d 1 -p tcp -e 40 -c 0 -i 0 -a 0 -x {0.0 1.0 -1 ------- null}
+ -t 0.1 -s 2 -d 3 -p cbr -e 210 -c 0 -i 1 -a 0 -x {2.0 3.0 0 ------- null}
- -t 0.1 -s 2 -d 3 -p cbr -e 210 -c 0 -i 1 -a 0 -x {2.0 3.0 0 ------- null}
h -t 0.1 -s 2 -d 3 -p cbr -e 210 -c 0 -i 1 -a 0 -x {2.0 3.0 -1 ------- null}
+ -t 0.10375 -s 2 -d 3 -p cbr -e 210 -c 0 -i 2 -a 0 -x {2.0 3.0 1 ------- null}
- -t 0.10375 -s 2 -d 3 -p cbr -e 210 -c 0 -i 2 -a 0 -x {2.0 3.0 1 ------- null}
h -t 0.10375 -s 2 -d 3 -p cbr -e 210 -c 0 -i 2 -a 0 -x {2.0 3.0 -1 ------- null}
+ -t 0.1075 -s 2 -d 3 -p cbr -e 210 -c 0 -i 3 -a 0 -x {2.0 3.0 2 ------- null}
- -t 0.1075 -s 2 -d 3 -p cbr -e 210 -c 0 -i 3 -a 0 -x {2.0 3.0 2 ------- null}
h -t 0.1075 -s 2 -d 3 -p cbr -e 210 -c 0 -i 3 -a 0 -x {2.0 3.0 -1 ------- null}
r -t 0.110106666666667 -s 0 -d 1 -p tcp -e 40 -c 0 -i 0 -a 0 -x {0.0 1.0 0 ------- null}
+ -t 0.110106666666667 -s 1 -d 0 -p ack -e 40 -c 0 -i 4 -a 0 -x {1.0 0.0 0 ------- null}
- -t 0.110106666666667 -s 1 -d 0 -p ack -e 40 -c 0 -i 4 -a 0 -x {1.0 0.0 0 ------- null}
h -t 0.110106666666667 -s 1 -d 0 -p ack -e 40 -c 0 -i 4 -a 0 -x {1.0 0.0 -1 ------- null}
r -t 0.11056 -s 2 -d 3 -p cbr -e 210 -c 0 -i 1 -a 0 -x {2.0 3.0 0 ------- null}
+ -t 0.11125 -s 2 -d 3 -p cbr -e 210 -c 0 -i 5 -a 0 -x {2.0 3.0 3 ------- null}
- -t 0.11125 -s 2 -d 3 -p cbr -e 210 -c 0 -i 5 -a 0 -x {2.0 3.0 3 ------- null}
h -t 0.11125 -s 2 -d 3 -p cbr -e 210 -c 0 -i 5 -a 0 -x {2.0 3.0 -1 ------- null}
r -t 0.11431 -s 2 -d 3 -p cbr -e 210 -c 0 -i 2 -a 0 -x {2.0 3.0 1 ------- null}
+ -t 0.115 -s 2 -d 3 -p cbr -e 210 -c 0 -i 6 -a 0 -x {2.0 3.0 4 ------- null}
- -t 0.115 -s 2 -d 3 -p cbr -e 210 -c 0 -i 6 -a 0 -x {2.0 3.0 4 ------- null}
h -t 0.115 -s 2 -d 3 -p cbr -e 210 -c 0 -i 6 -a 0 -x {2.0 3.0 -1 ------- null}
r -t 0.11806 -s 2 -d 3 -p cbr -e 210 -c 0 -i 3 -a 0 -x {2.0 3.0 2 ------- null}
+ -t 0.11875 -s 2 -d 3 -p cbr -e 210 -c 0 -i 7 -a 0 -x {2.0 3.0 5 ------- null}
- -t 0.11875 -s 2 -d 3 -p cbr -e 210 -c 0 -i 7 -a 0 -x {2.0 3.0 5 ------- null}
h -t 0.11875 -s 2 -d 3 -p cbr -e 210 -c 0 -i 7 -a 0 -x {2.0 3.0 -1 ------- null}
r -t 0.120213333333333 -s 1 -d 0 -p ack -e 40 -c 0 -i 4 -a 0 -x {1.0 0.0 0 ------- null}
+ -t 0.120213333333333 -s 0 -d 1 -p tcp -e 1040 -c 0 -i 8 -a 0 -x {0.0 1.0 1 ------- null}
- -t 0.120213333333333 -s 0 -d 1 -p tcp -e 1040 -c 0 -i 8 -a 0 -x {0.0 1.0 1 ------- null}
h -t 0.120213333333333 -s 0 -d 1 -p tcp -e 1040 -c 0 -i 8 -a 0 -x {0.0 1.0 -1 ------- null}
+ -t 0.120213333333333 -s 0 -d 1 -p tcp -e 1040 -c 0 -i 9 -a 0 -x {0.0 1.0 2 ------- null}
r -t 0.12181 -s 2 -d 3 -p cbr -e 210 -c 0 -i 5 -a 0 -x {2.0 3.0 3 ------- null}
+ -t 0.1225 -s 2 -d 3 -p cbr -e 210 -c 0 -i 10 -a 0 -x {2.0 3.0 6 ------- null}
- -t 0.1225 -s 2 -d 3 -p cbr -e 210 -c 0 -i 10 -a 0 -x {2.0 3.0 6 ------- null}
h -t 0.1225 -s 2 -d 3 -p cbr -e 210 -c 0 -i 10 -a 0 -x {2.0 3.0 -1 ------- null}
- -t 0.122986666666667 -s 0 -d 1 -p tcp -e 1040 -c 0 -i 9 -a 0 -x {0.0 1.0 2 ------- null}
h -t 0.122986666666667 -s 0 -d 1 -p tcp -e 1040 -c 0 -i 9 -a 0 -x {0.0 1.0 -1 ------- null}
r -t 0.12556 -s 2 -d 3 -p cbr -e 210 -c 0 -i 6 -a 0 -x {2.0 3.0 4 ------- null}
+ -t 0.12625 -s 2 -d 3 -p cbr -e 210 -c 0 -i 11 -a 0 -x {2.0 3.0 7 ------- null}
- -t 0.12625 -s 2 -d 3 -p cbr -e 210 -c 0 -i 11 -a 0 -x {2.0 3.0 7 ------- null}
h -t 0.12625 -s 2 -d 3 -p cbr -e 210 -c 0 -i 11 -a 0 -x {2.0 3.0 -1 ------- null}
r -t 0.12931 -s 2 -d 3 -p cbr -e 210 -c 0 -i 7 -a 0 -x {2.0 3.0 5 ------- null}
+ -t 0.13 -s 2 -d 3 -p cbr -e 210 -c 0 -i 12 -a 0 -x {2.0 3.0 8 ------- null}
- -t 0.13 -s 2 -d 3 -p cbr -e 210 -c 0 -i 12 -a 0 -x {2.0 3.0 8 ------- null}
h -t 0.13 -s 2 -d 3 -p cbr -e 210 -c 0 -i 12 -a 0 -x {2.0 3.0 -1 ------- null}
r -t 0.132986666666667 -s 0 -d 1 -p tcp -e 1040 -c 0 -i 8 -a 0 -x {0.0 1.0 1 ------- null}
+ -t 0.132986666666667 -s 1 -d 0 -p ack -e 40 -c 0 -i 13 -a 0 -x {1.0 0.0 1 ------- null}
- -t 0.132986666666667 -s 1 -d 0 -p ack -e 40 -c 0 -i 13 -a 0 -x {1.0 0.0 1 ------- null}
h -t 0.132986666666667 -s 1 -d 0 -p ack -e 40 -c 0 -i 13 -a 0 -x {1.0 0.0 -1 ------- null}
r -t 0.13306 -s 2 -d 3 -p cbr -e 210 -c 0 -i 10 -a 0 -x {2.0 3.0 6 ------- null}
+ -t 0.13375 -s 2 -d 3 -p cbr -e 210 -c 0 -i 14 -a 0 -x {2.0 3.0 9 ------- null}
- -t 0.13375 -s 2 -d 3 -p cbr -e 210 -c 0 -i 14 -a 0 -x {2.0 3.0 9 ------- null}
h -t 0.13375 -s 2 -d 3 -p cbr -e 210 -c 0 -i 14 -a 0 -x {2.0 3.0 -1 ------- null}
r -t 0.13576 -s 0 -d 1 -p tcp -e 1040 -c 0 -i 9 -a 0 -x {0.0 1.0 2 ------- null}
+ -t 0.13576 -s 1 -d 0 -p ack -e 40 -c 0 -i 15 -a 0 -x {1.0 0.0 2 ------- null}
- -t 0.13576 -s 1 -d 0 -p ack -e 40 -c 0 -i 15 -a 0 -x {1.0 0.0 2 ------- null}
h -t 0.13576 -s 1 -d 0 -p ack -e 40 -c 0 -i 15 -a 0 -x {1.0 0.0 -1 ------- null}
r -t 0.13681 -s 2 -d 3 -p cbr -e 210 -c 0 -i 11 -a 0 -x {2.0 3.0 7 ------- null}
+ -t 0.1375 -s 2 -d 3 -p cbr -e 210 -c 0 -i 16 -a 0 -x {2.0 3.0 10 ------- null}
- -t 0.1375 -s 2 -d 3 -p cbr -e 210 -c 0 -i 16 -a 0 -x {2.0 3.0 10 ------- null}
h -t 0.1375 -s 2 -d 3 -p cbr -e 210 -c 0 -i 16 -a 0 -x {2.0 3.0 -1 ------- null}
r -t 0.14056 -s 2 -d 3 -p cbr -e 210 -c 0 -i 12 -a 0 -x {2.0 3.0 8 ------- null}
+ -t 0.14125 -s 2 -d 3 -p cbr -e 210 -c 0 -i 17 -a 0 -x {2.0 3.0 11 ------- null}
- -t 0.14125 -s 2 -d 3 -p cbr -e 210 -c 0 -i 17 -a 0 -x {2.0 3.0 11 ------- null}
h -t 0.14125 -s 2 -d 3 -p cbr -e 210 -c 0 -i 17 -a 0 -x {2.0 3.0 -1 ------- null}
r -t 0.143093333333333 -s 1 -d 0 -p ack -e 40 -c 0 -i 13 -a 0 -x {1.0 0.0 1 ------- null}
+ -t 0.143093333333333 -s 0 -d 1 -p tcp -e 1040 -c 0 -i 18 -a 0 -x {0.0 1.0 3 ------- null}
- -t 0.143093333333333 -s 0 -d 1 -p tcp -e 1040 -c 0 -i 18 -a 0 -x {0.0 1.0 3 ------- null}
h -t 0.143093333333333 -s 0 -d 1 -p tcp -e 1040 -c 0 -i 18 -a 0 -x {0.0 1.0 -1 ------- null}
+ -t 0.143093333333333 -s 0 -d 1 -p tcp -e 1040 -c 0 -i 19 -a 0 -x {0.0 1.0 4 ------- null}
r -t 0.14431 -s 2 -d 3 -p cbr -e 210 -c 0 -i 14 -a 0 -x {2.0 3.0 9 ------- null}
+ -t 0.145 -s 2 -d 3 -p cbr -e 210 -c 0 -i 20 -a 0 -x {2.0 3.0 12 ------- null}
- -t 0.145 -s 2 -d 3 -p cbr -e 210 -c 0 -i 20 -a 0 -x {2.0 3.0 12 ------- null}
h -t 0.145 -s 2 -d 3 -p cbr -e 210 -c 0 -i 20 -a 0 -x {2.0 3.0 -1 ------- null}
- -t 0.145866666666667 -s 0 -d 1 -p tcp -e 1040 -c 0 -i 19 -a 0 -x {0.0 1.0 4 ------- null}
h -t 0.145866666666667 -s 0 -d 1 -p tcp -e 1040 -c 0 -i 19 -a 0 -x {0.0 1.0 -1 ------- null}
r -t 0.145866666666667 -s 1 -d 0 -p ack -e 40 -c 0 -i 15 -a 0 -x {1.0 0.0 2 ------- null}
+ -t 0.145866666666667 -s 0 -d 1 -p tcp -e 1040 -c 0 -i 21 -a 0 -x {0.0 1.0 5 ------- null}
+ -t 0.145866666666667 -s 0 -d 1 -p tcp -e 1040 -c 0 -i 22 -a 0 -x {0.0 1.0 6 ------- null}
r -t 0.14806 -s 2 -d 3 -p cbr -e 210 -c 0 -i 16 -a 0 -x {2.0 3.0 10 ------- null}
- -t 0.14864 -s 0 -d 1 -p tcp -e 1040 -c 0 -i 21 -a 0 -x {0.0 1.0 5 ------- null}
h -t 0.14864 -s 0 -d 1 -p tcp -e 1040 -c 0 -i 21 -a 0 -x {0.0 1.0 -1 ------- null}
+ -t 0.14875 -s 2 -d 3 -p cbr -e 210 -c 0 -i 23 -a 0 -x {2.0 3.0 13 ------- null}
- -t 0.14875 -s 2 -d 3 -p cbr -e 210 -c 0 -i 23 -a 0 -x {2.0 3.0 13 ------- null}
h -t 0.14875 -s 2 -d 3 -p cbr -e 210 -c 0 -i 23 -a 0 -x {2.0 3.0 -1 ------- null}
- -t 0.151413333333333 -s 0 -d 1 -p tcp -e 1040 -c 0 -i 22 -a 0 -x {0.0 1.0 6 ------- null}
h -t 0.151413333333333 -s 0 -d 1 -p tcp -e 1040 -c 0 -i 22 -a 0 -x {0.0 1.0 -1 ------- null}
r -t 0.15181 -s 2 -d 3 -p cbr -e 210 -c 0 -i 17 -a 0 -x {2.0 3.0 11 ------- null}
+ -t 0.1525 -s 2 -d 3 -p cbr -e 210 -c 0 -i 24 -a 0 -x {2.0 3.0 14 ------- null}
- -t 0.1525 -s 2 -d 3 -p cbr -e 210 -c 0 -i 24 -a 0 -x {2.0 3.0 14 ------- null}
h -t 0.1525 -s 2 -d 3 -p cbr -e 210 -c 0 -i 24 -a 0 -x {2.0 3.0 -1 ------- null}
r -t 0.15556 -s 2 -d 3 -p cbr -e 210 -c 0 -i 20 -a 0 -x {2.0 3.0 12 ------- null}
r -t 0.155866666666667 -s 0 -d 1 -p tcp -e 1040 -c 0 -i 18 -a 0 -x {0.0 1.0 3 ------- null}
+ -t 0.155866666666667 -s 1 -d 0 -p ack -e 40 -c 0 -i 25 -a 0 -x {1.0 0.0 3 ------- null}
- -t 0.155866666666667 -s 1 -d 0 -p ack -e 40 -c 0 -i 25 -a 0 -x {1.0 0.0 3 ------- null}
h -t 0.155866666666667 -s 1 -d 0 -p ack -e 40 -c 0 -i 25 -a 0 -x {1.0 0.0 -1 ------- null}
+ -t 0.15625 -s 2 -d 3 -p cbr -e 210 -c 0 -i 26 -a 0 -x {2.0 3.0 15 ------- null}
- -t 0.15625 -s 2 -d 3 -p cbr -e 210 -c 0 -i 26 -a 0 -x {2.0 3.0 15 ------- null}
h -t 0.15625 -s 2 -d 3 -p cbr -e 210 -c 0 -i 26 -a 0 -x {2.0 3.0 -1 ------- null}
r -t 0.15864 -s 0 -d 1 -p tcp -e 1040 -c 0 -i 19 -a 0 -x {0.0 1.0 4 ------- null}
+ -t 0.15864 -s 1 -d 0 -p ack -e 40 -c 0 -i 27 -a 0 -x {1.0 0.0 4 ------- null}
- -t 0.15864 -s 1 -d 0 -p ack -e 40 -c 0 -i 27 -a 0 -x {1.0 0.0 4 ------- null}
h -t 0.15864 -s 1 -d 0 -p ack -e 40 -c 0 -i 27 -a 0 -x {1.0 0.0 -1 ------- null}
r -t 0.15931 -s 2 -d 3 -p cbr -e 210 -c 0 -i 23 -a 0 -x {2.0 3.0 13 ------- null}
+ -t 0.16 -s 2 -d 3 -p cbr -e 210 -c 0 -i 28 -a 0 -x {2.0 3.0 16 ------- null}
- -t 0.16 -s 2 -d 3 -p cbr -e 210 -c 0 -i 28 -a 0 -x {2.0 3.0 16 ------- null}
h -t 0.16 -s 2 -d 3 -p cbr -e 210 -c 0 -i 28 -a 0 -x {2.0 3.0 -1 ------- null}
r -t 0.161413333333333 -s 0 -d 1 -p tcp -e 1040 -c 0 -i 21 -a 0 -x {0.0 1.0 5 ------- null}
+ -t 0.161413333333333 -s 1 -d 0 -p ack -e 40 -c 0 -i 29 -a 0 -x {1.0 0.0 5 ------- null}
- -t 0.161413333333333 -s 1 -d 0 -p ack -e 40 -c 0 -i 29 -a 0 -x {1.0 0.0 5 ------- null}
h -t 0.161413333333333 -s 1 -d 0 -p ack -e 40 -c 0 -i 29 -a 0 -x {1.0 0.0 -1 ------- null}
r -t 0.16306 -s 2 -d 3 -p cbr -e 210 -c 0 -i 24 -a 0 -x {2.0 3.0 14 ------- null}
+ -t 0.16375 -s 2 -d 3 -p cbr -e 210 -c 0 -i 30 -a 0 -x {2.0 3.0 17 ------- null}
- -t 0.16375 -s 2 -d 3 -p cbr -e 210 -c 0 -i 30 -a 0 -x {2.0 3.0 17 ------- null}
h -t 0.16375 -s 2 -d 3 -p cbr -e 210 -c 0 -i 30 -a 0 -x {2.0 3.0 -1 ------- null}
r -t 0.164186666666667 -s 0 -d 1 -p tcp -e 1040 -c 0 -i 22 -a 0 -x {0.0 1.0 6 ------- null}
+ -t 0.164186666666667 -s 1 -d 0 -p ack -e 40 -c 0 -i 31 -a 0 -x {1.0 0.0 6 ------- null}
- -t 0.164186666666667 -s 1 -d 0 -p ack -e 40 -c 0 -i 31 -a 0 -x {1.0 0.0 6 ------- null}
h -t 0.164186666666667 -s 1 -d 0 -p ack -e 40 -c 0 -i 31 -a 0 -x {1.0 0.0 -1 ------- null}
r -t 0.165973333333333 -s 1 -d 0 -p ack -e 40 -c 0 -i 25 -a 0 -x {1.0 0.0 3 ------- null}
+ -t 0.165973333333333 -s 0 -d 1 -p tcp -e 1040 -c 0 -i 32 -a 0 -x {0.0 1.0 7 ------- null}
- -t 0.165973333333333 -s 0 -d 1 -p tcp -e 1040 -c 0 -i 32 -a 0 -x {0.0 1.0 7 ------- null}
h -t 0.165973333333333 -s 0 -d 1 -p tcp -e 1040 -c 0 -i 32 -a 0 -x {0.0 1.0 -1 ------- null}
+ -t 0.165973333333333 -s 0 -d 1 -p tcp -e 1040 -c 0 -i 33 -a 0 -x {0.0 1.0 8 ------- null}
r -t 0.16681 -s 2 -d 3 -p cbr -e 210 -c 0 -i 26 -a 0 -x {2.0 3.0 15 ------- null}
+ -t 0.1675 -s 2 -d 3 -p cbr -e 210 -c 0 -i 34 -a 0 -x {2.0 3.0 18 ------- null}
- -t 0.1675 -s 2 -d 3 -p cbr -e 210 -c 0 -i 34 -a 0 -x {2.0 3.0 18 ------- null}
h -t 0.1675 -s 2 -d 3 -p cbr -e 210 -c 0 -i 34 -a 0 -x {2.0 3.0 -1 ------- null}
r -t 0.168746666666667 -s 1 -d 0 -p ack -e 40 -c 0 -i 27 -a 0 -x {1.0 0.0 4 ------- null}
+ -t 0.168746666666667 -s 0 -d 1 -p tcp -e 1040 -c 0 -i 35 -a 0 -x {0.0 1.0 9 ------- null}
+ -t 0.168746666666667 -s 0 -d 1 -p tcp -e 1040 -c 0 -i 36 -a 0 -x {0.0 1.0 10 ------- null}
- -t 0.168746666666667 -s 0 -d 1 -p tcp -e 1040 -c 0 -i 33 -a 0 -x {0.0 1.0 8 ------- null}
h -t 0.168746666666667 -s 0 -d 1 -p tcp -e 1040 -c 0 -i 33 -a 0 -x {0.0 1.0 -1 ------- null}
r -t 0.17056 -s 2 -d 3 -p cbr -e 210 -c 0 -i 28 -a 0 -x {2.0 3.0 16 ------- null}
+ -t 0.17125 -s 2 -d 3 -p cbr -e 210 -c 0 -i 37 -a 0 -x {2.0 3.0 19 ------- null}
- -t 0.17125 -s 2 -d 3 -p cbr -e 210 -c 0 -i 37 -a 0 -x {2.0 3.0 19 ------- null}
h -t 0.17125 -s 2 -d 3 -p cbr -e 210 -c 0 -i 37 -a 0 -x {2.0 3.0 -1 ------- null}
r -t 0.17152 -s 1 -d 0 -p ack -e 40 -c 0 -i 29 -a 0 -x {1.0 0.0 5 ------- null}
+ -t 0.17152 -s 0 -d 1 -p tcp -e 1040 -c 0 -i 38 -a 0 -x {0.0 1.0 11 ------- null}
+ -t 0.17152 -s 0 -d 1 -p tcp -e 1040 -c 0 -i 39 -a 0 -x {0.0 1.0 12 ------- null}
- -t 0.17152 -s 0 -d 1 -p tcp -e 1040 -c 0 -i 35 -a 0 -x {0.0 1.0 9 ------- null}
h -t 0.17152 -s 0 -d 1 -p tcp -e 1040 -c 0 -i 35 -a 0 -x {0.0 1.0 -1 ------- null}
r -t 0.174293333333333 -s 1 -d 0 -p ack -e 40 -c 0 -i 31 -a 0 -x {1.0 0.0 6 ------- null}
+ -t 0.174293333333333 -s 0 -d 1 -p tcp -e 1040 -c 0 -i 40 -a 0 -x {0.0 1.0 13 ------- null}
+ -t 0.174293333333333 -s 0 -d 1 -p tcp -e 1040 -c 0 -i 41 -a 0 -x {0.0 1.0 14 ------- null}
- -t 0.174293333333333 -s 0 -d 1 -p tcp -e 1040 -c 0 -i 36 -a 0 -x {0.0 1.0 10 ------- null}
h -t 0.174293333333333 -s 0 -d 1 -p tcp -e 1040 -c 0 -i 36 -a 0 -x {0.0 1.0 -1 ------- null}
r -t 0.17431 -s 2 -d 3 -p cbr -e 210 -c 0 -i 30 -a 0 -x {2.0 3.0 17 ------- null}
+ -t 0.175 -s 2 -d 3 -p cbr -e 210 -c 0 -i 42 -a 0 -x {2.0 3.0 20 ------- null}
- -t 0.175 -s 2 -d 3 -p cbr -e 210 -c 0 -i 42 -a 0 -x {2.0 3.0 20 ------- null}
h -t 0.175 -s 2 -d 3 -p cbr -e 210 -c 0 -i 42 -a 0 -x {2.0 3.0 -1 ------- null}
- -t 0.177066666666667 -s 0 -d 1 -p tcp -e 1040 -c 0 -i 38 -a 0 -x {0.0 1.0 11 ------- null}
h -t 0.177066666666667 -s 0 -d 1 -p tcp -e 1040 -c 0 -i 38 -a 0 -x {0.0 1.0 -1 ------- null}
r -t 0.17806 -s 2 -d 3 -p cbr -e 210 -c 0 -i 34 -a 0 -x {2.0 3.0 18 ------- null}
r -t 0.178746666666667 -s 0 -d 1 -p tcp -e 1040 -c 0 -i 32 -a 0 -x {0.0 1.0 7 ------- null}
+ -t 0.178746666666667 -s 1 -d 0 -p ack -e 40 -c 0 -i 43 -a 0 -x {1.0 0.0 7 ------- null}
- -t 0.178746666666667 -s 1 -d 0 -p ack -e 40 -c 0 -i 43 -a 0 -x {1.0 0.0 7 ------- null}
h -t 0.178746666666667 -s 1 -d 0 -p ack -e 40 -c 0 -i 43 -a 0 -x {1.0 0.0 -1 ------- null}
+ -t 0.17875 -s 2 -d 3 -p cbr -e 210 -c 0 -i 44 -a 0 -x {2.0 3.0 21 ------- null}
- -t 0.17875 -s 2 -d 3 -p cbr -e 210 -c 0 -i 44 -a 0 -x {2.0 3.0 21 ------- null}
h -t 0.17875 -s 2 -d 3 -p cbr -e 210 -c 0 -i 44 -a 0 -x {2.0 3.0 -1 ------- null}
- -t 0.17984 -s 0 -d 1 -p tcp -e 1040 -c 0 -i 39 -a 0 -x {0.0 1.0 12 ------- null}
h -t 0.17984 -s 0 -d 1 -p tcp -e 1040 -c 0 -i 39 -a 0 -x {0.0 1.0 -1 ------- null}
r -t 0.18152 -s 0 -d 1 -p tcp -e 1040 -c 0 -i 33 -a 0 -x {0.0 1.0 8 ------- null}
+ -t 0.18152 -s 1 -d 0 -p ack -e 40 -c 0 -i 45 -a 0 -x {1.0 0.0 8 ------- null}
- -t 0.18152 -s 1 -d 0 -p ack -e 40 -c 0 -i 45 -a 0 -x {1.0 0.0 8 ------- null}
h -t 0.18152 -s 1 -d 0 -p ack -e 40 -c 0 -i 45 -a 0 -x {1.0 0.0 -1 ------- null}
r -t 0.18181 -s 2 -d 3 -p cbr -e 210 -c 0 -i 37 -a 0 -x {2.0 3.0 19 ------- null}
+ -t 0.1825 -s 2 -d 3 -p cbr -e 210 -c 0 -i 46 -a 0 -x {2.0 3.0 22 ------- null}
- -t 0.1825 -s 2 -d 3 -p cbr -e 210 -c 0 -i 46 -a 0 -x {2.0 3.0 22 ------- null}
h -t 0.1825 -s 2 -d 3 -p cbr -e 210 -c 0 -i 46 -a 0 -x {2.0 3.0 -1 ------- null}
- -t 0.182613333333333 -s 0 -d 1 -p tcp -e 1040 -c 0 -i 40 -a 0 -x {0.0 1.0 13 ------- null}
h -t 0.182613333333333 -s 0 -d 1 -p tcp -e 1040 -c 0 -i 40 -a 0 -x {0.0 1.0 -1 ------- null}
r -t 0.184293333333333 -s 0 -d 1 -p tcp -e 1040 -c 0 -i 35 -a 0 -x {0.0 1.0 9 ------- null}
+ -t 0.184293333333333 -s 1 -d 0 -p ack -e 40 -c 0 -i 47 -a 0 -x {1.0 0.0 9 ------- null}
- -t 0.184293333333333 -s 1 -d 0 -p ack -e 40 -c 0 -i 47 -a 0 -x {1.0 0.0 9 ------- null}
h -t 0.184293333333333 -s 1 -d 0 -p ack -e 40 -c 0 -i 47 -a 0 -x {1.0 0.0 -1 ------- null}
- -t 0.185386666666667 -s 0 -d 1 -p tcp -e 1040 -c 0 -i 41 -a 0 -x {0.0 1.0 14 ------- null}
h -t 0.185386666666667 -s 0 -d 1 -p tcp -e 1040 -c 0 -i 41 -a 0 -x {0.0 1.0 -1 ------- null}
r -t 0.18556 -s 2 -d 3 -p cbr -e 210 -c 0 -i 42 -a 0 -x {2.0 3.0 20 ------- null}
+ -t 0.18625 -s 2 -d 3 -p cbr -e 210 -c 0 -i 48 -a 0 -x {2.0 3.0 23 ------- null}
- -t 0.18625 -s 2 -d 3 -p cbr -e 210 -c 0 -i 48 -a 0 -x {2.0 3.0 23 ------- null}
h -t 0.18625 -s 2 -d 3 -p cbr -e 210 -c 0 -i 48 -a 0 -x {2.0 3.0 -1 ------- null}
r -t 0.187066666666667 -s 0 -d 1 -p tcp -e 1040 -c 0 -i 36 -a 0 -x {0.0 1.0 10 ------- null}
+ -t 0.187066666666667 -s 1 -d 0 -p ack -e 40 -c 0 -i 49 -a 0 -x {1.0 0.0 10 ------- null}
- -t 0.187066666666667 -s 1 -d 0 -p ack -e 40 -c 0 -i 49 -a 0 -x {1.0 0.0 10 ------- null}
h -t 0.187066666666667 -s 1 -d 0 -p ack -e 40 -c 0 -i 49 -a 0 -x {1.0 0.0 -1 ------- null}
r -t 0.188853333333333 -s 1 -d 0 -p ack -e 40 -c 0 -i 43 -a 0 -x {1.0 0.0 7 ------- null}
+ -t 0.188853333333333 -s 0 -d 1 -p tcp -e 1040 -c 0 -i 50 -a 0 -x {0.0 1.0 15 ------- null}
- -t 0.188853333333333 -s 0 -d 1 -p tcp -e 1040 -c 0 -i 50 -a 0 -x {0.0 1.0 15 ------- null}
h -t 0.188853333333333 -s 0 -d 1 -p tcp -e 1040 -c 0 -i 50 -a 0 -x {0.0 1.0 -1 ------- null}
+ -t 0.188853333333333 -s 0 -d 1 -p tcp -e 1040 -c 0 -i 51 -a 0 -x {0.0 1.0 16 ------- null}
r -t 0.18931 -s 2 -d 3 -p cbr -e 210 -c 0 -i 44 -a 0 -x {2.0 3.0 21 ------- null}
r -t 0.18984 -s 0 -d 1 -p tcp -e 1040 -c 0 -i 38 -a 0 -x {0.0 1.0 11 ------- null}
+ -t 0.18984 -s 1 -d 0 -p ack -e 40 -c 0 -i 52 -a 0 -x {1.0 0.0 11 ------- null}
- -t 0.18984 -s 1 -d 0 -p ack -e 40 -c 0 -i 52 -a 0 -x {1.0 0.0 11 ------- null}
h -t 0.18984 -s 1 -d 0 -p ack -e 40 -c 0 -i 52 -a 0 -x {1.0 0.0 -1 ------- null}
+ -t 0.19 -s 2 -d 3 -p cbr -e 210 -c 0 -i 53 -a 0 -x {2.0 3.0 24 ------- null}
- -t 0.19 -s 2 -d 3 -p cbr -e 210 -c 0 -i 53 -a 0 -x {2.0 3.0 24 ------- null}
h -t 0.19 -s 2 -d 3 -p cbr -e 210 -c 0 -i 53 -a 0 -x {2.0 3.0 -1 ------- null}
r -t 0.191626666666667 -s 1 -d 0 -p ack -e 40 -c 0 -i 45 -a 0 -x {1.0 0.0 8 ------- null}
+ -t 0.191626666666667 -s 0 -d 1 -p tcp -e 1040 -c 0 -i 54 -a 0 -x {0.0 1.0 17 ------- null}
+ -t 0.191626666666667 -s 0 -d 1 -p tcp -e 1040 -c 0 -i 55 -a 0 -x {0.0 1.0 18 ------- null}
- -t 0.191626666666667 -s 0 -d 1 -p tcp -e 1040 -c 0 -i 51 -a 0 -x {0.0 1.0 16 ------- null}
h -t 0.191626666666667 -s 0 -d 1 -p tcp -e 1040 -c 0 -i 51 -a 0 -x {0.0 1.0 -1 ------- null}
r -t 0.192613333333333 -s 0 -d 1 -p tcp -e 1040 -c 0 -i 39 -a 0 -x {0.0 1.0 12 ------- null}
+ -t 0.192613333333333 -s 1 -d 0 -p ack -e 40 -c 0 -i 56 -a 0 -x {1.0 0.0 12 ------- null}
- -t 0.192613333333333 -s 1 -d 0 -p ack -e 40 -c 0 -i 56 -a 0 -x {1.0 0.0 12 ------- null}
h -t 0.192613333333333 -s 1 -d 0 -p ack -e 40 -c 0 -i 56 -a 0 -x {1.0 0.0 -1 ------- null}
r -t 0.19306 -s 2 -d 3 -p cbr -e 210 -c 0 -i 46 -a 0 -x {2.0 3.0 22 ------- null}
+ -t 0.19375 -s 2 -d 3 -p cbr -e 210 -c 0 -i 57 -a 0 -x {2.0 3.0 25 ------- null}
- -t 0.19375 -s 2 -d 3 -p cbr -e 210 -c 0 -i 57 -a 0 -x {2.0 3.0 25 ------- null}
h -t 0.19375 -s 2 -d 3 -p cbr -e 210 -c 0 -i 57 -a 0 -x {2.0 3.0 -1 ------- null}
r -t 0.1944 -s 1 -d 0 -p ack -e 40 -c 0 -i 47 -a 0 -x {1.0 0.0 9 ------- null}
+ -t 0.1944 -s 0 -d 1 -p tcp -e 1040 -c 0 -i 58 -a 0 -x {0.0 1.0 19 ------- null}
+ -t 0.1944 -s 0 -d 1 -p tcp -e 1040 -c 0 -i 59 -a 0 -x {0.0 1.0 20 ------- null}
- -t 0.1944 -s 0 -d 1 -p tcp -e 1040 -c 0 -i 54 -a 0 -x {0.0 1.0 17 ------- null}
h -t 0.1944 -s 0 -d 1 -p tcp -e 1040 -c 0 -i 54 -a 0 -x {0.0 1.0 -1 ------- null}
r -t 0.195386666666667 -s 0 -d 1 -p tcp -e 1040 -c 0 -i 40 -a 0 -x {0.0 1.0 13 ------- null}
+ -t 0.195386666666667 -s 1 -d 0 -p ack -e 40 -c 0 -i 60 -a 0 -x {1.0 0.0 13 ------- null}
- -t 0.195386666666667 -s 1 -d 0 -p ack -e 40 -c 0 -i 60 -a 0 -x {1.0 0.0 13 ------- null}
h -t 0.195386666666667 -s 1 -d 0 -p ack -e 40 -c 0 -i 60 -a 0 -x {1.0 0.0 -1 ------- null}
r -t 0.19681 -s 2 -d 3 -p cbr -e 210 -c 0 -i 48 -a 0 -x {2.0 3.0 23 ------- null}
r -t 0.197173333333333 -s 1 -d 0 -p ack -e 40 -c 0 -i 49 -a 0 -x {1.0 0.0 10 ------- null}
+ -t 0.197173333333333 -s 0 -d 1 -p tcp -e 1040 -c 0 -i 61 -a 0 -x {0.0 1.0 21 ------- null}
+ -t 0.197173333333333 -s 0 -d 1 -p tcp -e 1040 -c 0 -i 62 -a 0 -x {0.0 1.0 22 ------- null}
- -t 0.197173333333333 -s 0 -d 1 -p tcp -e 1040 -c 0 -i 55 -a 0 -x {0.0 1.0 18 ------- null}
h -t 0.197173333333333 -s 0 -d 1 -p tcp -e 1040 -c 0 -i 55 -a 0 -x {0.0 1.0 -1 ------- null}
+ -t 0.1975 -s 2 -d 3 -p cbr -e 210 -c 0 -i 63 -a 0 -x {2.0 3.0 26 ------- null}
- -t 0.1975 -s 2 -d 3 -p cbr -e 210 -c 0 -i 63 -a 0 -x {2.0 3.0 26 ------- null}
h -t 0.1975 -s 2 -d 3 -p cbr -e 210 -c 0 -i 63 -a 0 -x {2.0 3.0 -1 ------- null}
r -t 0.19816 -s 0 -d 1 -p tcp -e 1040 -c 0 -i 41 -a 0 -x {0.0 1.0 14 ------- null}
+ -t 0.19816 -s 1 -d 0 -p ack -e 40 -c 0 -i 64 -a 0 -x {1.0 0.0 14 ------- null}
- -t 0.19816 -s 1 -d 0 -p ack -e 40 -c 0 -i 64 -a 0 -x {1.0 0.0 14 ------- null}
h -t 0.19816 -s 1 -d 0 -p ack -e 40 -c 0 -i 64 -a 0 -x {1.0 0.0 -1 ------- null}
r -t 0.199946666666667 -s 1 -d 0 -p ack -e 40 -c 0 -i 52 -a 0 -x {1.0 0.0 11 ------- null}
+ -t 0.199946666666667 -s 0 -d 1 -p tcp -e 1040 -c 0 -i 65 -a 0 -x {0.0 1.0 23 ------- null}
+ -t 0.199946666666667 -s 0 -d 1 -p tcp -e 1040 -c 0 -i 66 -a 0 -x {0.0 1.0 24 ------- null}
- -t 0.199946666666667 -s 0 -d 1 -p tcp -e 1040 -c 0 -i 58 -a 0 -x {0.0 1.0 19 ------- null}
h -t 0.199946666666667 -s 0 -d 1 -p tcp -e 1040 -c 0 -i 58 -a 0 -x {0.0 1.0 -1 ------- null}
r -t 0.20056 -s 2 -d 3 -p cbr -e 210 -c 0 -i 53 -a 0 -x {2.0 3.0 24 ------- null}
+ -t 0.20125 -s 2 -d 3 -p cbr -e 210 -c 0 -i 67 -a 0 -x {2.0 3.0 27 ------- null}
- -t 0.20125 -s 2 -d 3 -p cbr -e 210 -c 0 -i 67 -a 0 -x {2.0 3.0 27 ------- null}
h -t 0.20125 -s 2 -d 3 -p cbr -e 210 -c 0 -i 67 -a 0 -x {2.0 3.0 -1 ------- null}
r -t 0.201626666666667 -s 0 -d 1 -p tcp -e 1040 -c 0 -i 50 -a 0 -x {0.0 1.0 15 ------- null}
+ -t 0.201626666666667 -s 1 -d 0 -p ack -e 40 -c 0 -i 68 -a 0 -x {1.0 0.0 15 ------- null}
- -t 0.201626666666667 -s 1 -d 0 -p ack -e 40 -c 0 -i 68 -a 0 -x {1.0 0.0 15 ------- null}
h -t 0.201626666666667 -s 1 -d 0 -p ack -e 40 -c 0 -i 68 -a 0 -x {1.0 0.0 -1 ------- null}
r -t 0.20272 -s 1 -d 0 -p ack -e 40 -c 0 -i 56 -a 0 -x {1.0 0.0 12 ------- null}
+ -t 0.20272 -s 0 -d 1 -p tcp -e 1040 -c 0 -i 69 -a 0 -x {0.0 1.0 25 ------- null}
+ -t 0.20272 -s 0 -d 1 -p tcp -e 1040 -c 0 -i 70 -a 0 -x {0.0 1.0 26 ------- null}
- -t 0.20272 -s 0 -d 1 -p tcp -e 1040 -c 0 -i 59 -a 0 -x {0.0 1.0 20 ------- null}
h -t 0.20272 -s 0 -d 1 -p tcp -e 1040 -c 0 -i 59 -a 0 -x {0.0 1.0 -1 ------- null}
r -t 0.20431 -s 2 -d 3 -p cbr -e 210 -c 0 -i 57 -a 0 -x {2.0 3.0 25 ------- null}
r -t 0.2044 -s 0 -d 1 -p tcp -e 1040 -c 0 -i 51 -a 0 -x {0.0 1.0 16 ------- null}
+ -t 0.2044 -s 1 -d 0 -p ack -e 40 -c 0 -i 71 -a 0 -x {1.0 0.0 16 ------- null}
- -t 0.2044 -s 1 -d 0 -p ack -e 40 -c 0 -i 71 -a 0 -x {1.0 0.0 16 ------- null}
h -t 0.2044 -s 1 -d 0 -p ack -e 40 -c 0 -i 71 -a 0 -x {1.0 0.0 -1 ------- null}
+ -t 0.205 -s 2 -d 3 -p cbr -e 210 -c 0 -i 72 -a 0 -x {2.0 3.0 28 ------- null}
- -t 0.205 -s 2 -d 3 -p cbr -e 210 -c 0 -i 72 -a 0 -x {2.0 3.0 28 ------- null}
h -t 0.205 -s 2 -d 3 -p cbr -e 210 -c 0 -i 72 -a 0 -x {2.0 3.0 -1 ------- null}
r -t 0.205493333333333 -s 1 -d 0 -p ack -e 40 -c 0 -i 60 -a 0 -x {1.0 0.0 13 ------- null}
+ -t 0.205493333333333 -s 0 -d 1 -p tcp -e 1040 -c 0 -i 73 -a 0 -x {0.0 1.0 27 ------- null}
+ -t 0.205493333333333 -s 0 -d 1 -p tcp -e 1040 -c 0 -i 74 -a 0 -x {0.0 1.0 28 ------- null}
- -t 0.205493333333333 -s 0 -d 1 -p tcp -e 1040 -c 0 -i 61 -a 0 -x {0.0 1.0 21 ------- null}
h -t 0.205493333333333 -s 0 -d 1 -p tcp -e 1040 -c 0 -i 61 -a 0 -x {0.0 1.0 -1 ------- null}
r -t 0.207173333333333 -s 0 -d 1 -p tcp -e 1040 -c 0 -i 54 -a 0 -x {0.0 1.0 17 ------- null}
+ -t 0.207173333333333 -s 1 -d 0 -p ack -e 40 -c 0 -i 75 -a 0 -x {1.0 0.0 17 ------- null}
- -t 0.207173333333333 -s 1 -d 0 -p ack -e 40 -c 0 -i 75 -a 0 -x {1.0 0.0 17 ------- null}
h -t 0.207173333333333 -s 1 -d 0 -p ack -e 40 -c 0 -i 75 -a 0 -x {1.0 0.0 -1 ------- null}
r -t 0.20806 -s 2 -d 3 -p cbr -e 210 -c 0 -i 63 -a 0 -x {2.0 3.0 26 ------- null}
r -t 0.208266666666667 -s 1 -d 0 -p ack -e 40 -c 0 -i 64 -a 0 -x {1.0 0.0 14 ------- null}
+ -t 0.208266666666667 -s 0 -d 1 -p tcp -e 1040 -c 0 -i 76 -a 0 -x {0.0 1.0 29 ------- null}
+ -t 0.208266666666667 -s 0 -d 1 -p tcp -e 1040 -c 0 -i 77 -a 0 -x {0.0 1.0 30 ------- null}
- -t 0.208266666666667 -s 0 -d 1 -p tcp -e 1040 -c 0 -i 62 -a 0 -x {0.0 1.0 22 ------- null}
h -t 0.208266666666667 -s 0 -d 1 -p tcp -e 1040 -c 0 -i 62 -a 0 -x {0.0 1.0 -1 ------- null}
+ -t 0.20875 -s 2 -d 3 -p cbr -e 210 -c 0 -i 78 -a 0 -x {2.0 3.0 29 ------- null}
- -t 0.20875 -s 2 -d 3 -p cbr -e 210 -c 0 -i 78 -a 0 -x {2.0 3.0 29 ------- null}
h -t 0.20875 -s 2 -d 3 -p cbr -e 210 -c 0 -i 78 -a 0 -x {2.0 3.0 -1 ------- null}
r -t 0.209946666666667 -s 0 -d 1 -p tcp -e 1040 -c 0 -i 55 -a 0 -x {0.0 1.0 18 ------- null}
+ -t 0.209946666666667 -s 1 -d 0 -p ack -e 40 -c 0 -i 79 -a 0 -x {1.0 0.0 18 ------- null}
- -t 0.209946666666667 -s 1 -d 0 -p ack -e 40 -c 0 -i 79 -a 0 -x {1.0 0.0 18 ------- null}
h -t 0.209946666666667 -s 1 -d 0 -p ack -e 40 -c 0 -i 79 -a 0 -x {1.0 0.0 -1 ------- null}
- -t 0.21104 -s 0 -d 1 -p tcp -e 1040 -c 0 -i 65 -a 0 -x {0.0 1.0 23 ------- null}
h -t 0.21104 -s 0 -d 1 -p tcp -e 1040 -c 0 -i 65 -a 0 -x {0.0 1.0 -1 ------- null}
r -t 0.211733333333333 -s 1 -d 0 -p ack -e 40 -c 0 -i 68 -a 0 -x {1.0 0.0 15 ------- null}
+ -t 0.211733333333333 -s 0 -d 1 -p tcp -e 1040 -c 0 -i 80 -a 0 -x {0.0 1.0 31 ------- null}
+ -t 0.211733333333333 -s 0 -d 1 -p tcp -e 1040 -c 0 -i 81 -a 0 -x {0.0 1.0 32 ------- null}
r -t 0.21181 -s 2 -d 3 -p cbr -e 210 -c 0 -i 67 -a 0 -x {2.0 3.0 27 ------- null}
+ -t 0.2125 -s 2 -d 3 -p cbr -e 210 -c 0 -i 82 -a 0 -x {2.0 3.0 30 ------- null}
- -t 0.2125 -s 2 -d 3 -p cbr -e 210 -c 0 -i 82 -a 0 -x {2.0 3.0 30 ------- null}
h -t 0.2125 -s 2 -d 3 -p cbr -e 210 -c 0 -i 82 -a 0 -x {2.0 3.0 -1 ------- null}
r -t 0.21272 -s 0 -d 1 -p tcp -e 1040 -c 0 -i 58 -a 0 -x {0.0 1.0 19 ------- null}
+ -t 0.21272 -s 1 -d 0 -p ack -e 40 -c 0 -i 83 -a 0 -x {1.0 0.0 19 ------- null}
- -t 0.21272 -s 1 -d 0 -p ack -e 40 -c 0 -i 83 -a 0 -x {1.0 0.0 19 ------- null}
h -t 0.21272 -s 1 -d 0 -p ack -e 40 -c 0 -i 83 -a 0 -x {1.0 0.0 -1 ------- null}
- -t 0.213813333333333 -s 0 -d 1 -p tcp -e 1040 -c 0 -i 66 -a 0 -x {0.0 1.0 24 ------- null}
h -t 0.213813333333333 -s 0 -d 1 -p tcp -e 1040 -c 0 -i 66 -a 0 -x {0.0 1.0 -1 ------- null}
r -t 0.214506666666667 -s 1 -d 0 -p ack -e 40 -c 0 -i 71 -a 0 -x {1.0 0.0 16 ------- null}
+ -t 0.214506666666667 -s 0 -d 1 -p tcp -e 1040 -c 0 -i 84 -a 0 -x {0.0 1.0 33 ------- null}
+ -t 0.214506666666667 -s 0 -d 1 -p tcp -e 1040 -c 0 -i 85 -a 0 -x {0.0 1.0 34 ------- null}
r -t 0.215493333333333 -s 0 -d 1 -p tcp -e 1040 -c 0 -i 59 -a 0 -x {0.0 1.0 20 ------- null}
+ -t 0.215493333333333 -s 1 -d 0 -p ack -e 40 -c 0 -i 86 -a 0 -x {1.0 0.0 20 ------- null}
- -t 0.215493333333333 -s 1 -d 0 -p ack -e 40 -c 0 -i 86 -a 0 -x {1.0 0.0 20 ------- null}
h -t 0.215493333333333 -s 1 -d 0 -p ack -e 40 -c 0 -i 86 -a 0 -x {1.0 0.0 -1 ------- null}
r -t 0.21556 -s 2 -d 3 -p cbr -e 210 -c 0 -i 72 -a 0 -x {2.0 3.0 28 ------- null}
+ -t 0.21625 -s 2 -d 3 -p cbr -e 210 -c 0 -i 87 -a 0 -x {2.0 3.0 31 ------- null}
- -t 0.21625 -s 2 -d 3 -p cbr -e 210 -c 0 -i 87 -a 0 -x {2.0 3.0 31 ------- null}
h -t 0.21625 -s 2 -d 3 -p cbr -e 210 -c 0 -i 87 -a 0 -x {2.0 3.0 -1 ------- null}
- -t 0.216586666666667 -s 0 -d 1 -p tcp -e 1040 -c 0 -i 69 -a 0 -x {0.0 1.0 25 ------- null}
h -t 0.216586666666667 -s 0 -d 1 -p tcp -e 1040 -c 0 -i 69 -a 0 -x {0.0 1.0 -1 ------- null}
r -t 0.21728 -s 1 -d 0 -p ack -e 40 -c 0 -i 75 -a 0 -x {1.0 0.0 17 ------- null}
+ -t 0.21728 -s 0 -d 1 -p tcp -e 1040 -c 0 -i 88 -a 0 -x {0.0 1.0 35 ------- null}
+ -t 0.21728 -s 0 -d 1 -p tcp -e 1040 -c 0 -i 89 -a 0 -x {0.0 1.0 36 ------- null}
r -t 0.218266666666667 -s 0 -d 1 -p tcp -e 1040 -c 0 -i 61 -a 0 -x {0.0 1.0 21 ------- null}
+ -t 0.218266666666667 -s 1 -d 0 -p ack -e 40 -c 0 -i 90 -a 0 -x {1.0 0.0 21 ------- null}
- -t 0.218266666666667 -s 1 -d 0 -p ack -e 40 -c 0 -i 90 -a 0 -x {1.0 0.0 21 ------- null}
h -t 0.218266666666667 -s 1 -d 0 -p ack -e 40 -c 0 -i 90 -a 0 -x {1.0 0.0 -1 ------- null}
r -t 0.21931 -s 2 -d 3 -p cbr -e 210 -c 0 -i 78 -a 0 -x {2.0 3.0 29 ------- null}
- -t 0.21936 -s 0 -d 1 -p tcp -e 1040 -c 0 -i 70 -a 0 -x {0.0 1.0 26 ------- null}
h -t 0.21936 -s 0 -d 1 -p tcp -e 1040 -c 0 -i 70 -a 0 -x {0.0 1.0 -1 ------- null}
+ -t 0.22 -s 2 -d 3 -p cbr -e 210 -c 0 -i 91 -a 0 -x {2.0 3.0 32 ------- null}
- -t 0.22 -s 2 -d 3 -p cbr -e 210 -c 0 -i 91 -a 0 -x {2.0 3.0 32 ------- null}
h -t 0.22 -s 2 -d 3 -p cbr -e 210 -c 0 -i 91 -a 0 -x {2.0 3.0 -1 ------- null}
r -t 0.220053333333333 -s 1 -d 0 -p ack -e 40 -c 0 -i 79 -a 0 -x {1.0 0.0 18 ------- null}
+ -t 0.220053333333333 -s 0 -d 1 -p tcp -e 1040 -c 0 -i 92 -a 0 -x {0.0 1.0 37 ------- null}
+ -t 0.220053333333333 -s 0 -d 1 -p tcp -e 1040 -c 0 -i 93 -a 0 -x {0.0 1.0 38 ------- null}
r -t 0.22104 -s 0 -d 1 -p tcp -e 1040 -c 0 -i 62 -a 0 -x {0.0 1.0 22 ------- null}
+ -t 0.22104 -s 1 -d 0 -p ack -e 40 -c 0 -i 94 -a 0 -x {1.0 0.0 22 ------- null}
- -t 0.22104 -s 1 -d 0 -p ack -e 40 -c 0 -i 94 -a 0 -x {1.0 0.0 22 ------- null}
h -t 0.22104 -s 1 -d 0 -p ack -e 40 -c 0 -i 94 -a 0 -x {1.0 0.0 -1 ------- null}
- -t 0.222133333333333 -s 0 -d 1 -p tcp -e 1040 -c 0 -i 73 -a 0 -x {0.0 1.0 27 ------- null}
h -t 0.222133333333333 -s 0 -d 1 -p tcp -e 1040 -c 0 -i 73 -a 0 -x {0.0 1.0 -1 ------- null}
r -t 0.222826666666667 -s 1 -d 0 -p ack -e 40 -c 0 -i 83 -a 0 -x {1.0 0.0 19 ------- null}
+ -t 0.222826666666667 -s 0 -d 1 -p tcp -e 1040 -c 0 -i 95 -a 0 -x {0.0 1.0 39 ------- null}
r -t 0.22306 -s 2 -d 3 -p cbr -e 210 -c 0 -i 82 -a 0 -x {2.0 3.0 30 ------- null}
+ -t 0.22375 -s 2 -d 3 -p cbr -e 210 -c 0 -i 96 -a 0 -x {2.0 3.0 33 ------- null}
- -t 0.22375 -s 2 -d 3 -p cbr -e 210 -c 0 -i 96 -a 0 -x {2.0 3.0 33 ------- null}
h -t 0.22375 -s 2 -d 3 -p cbr -e 210 -c 0 -i 96 -a 0 -x {2.0 3.0 -1 ------- null}
r -t 0.223813333333333 -s 0 -d 1 -p tcp -e 1040 -c 0 -i 65 -a 0 -x {0.0 1.0 23 ------- null}
+ -t 0.223813333333333 -s 1 -d 0 -p ack -e 40 -c 0 -i 97 -a 0 -x {1.0 0.0 23 ------- null}
- -t 0.223813333333333 -s 1 -d 0 -p ack -e 40 -c 0 -i 97 -a 0 -x {1.0 0.0 23 ------- null}