+ 0.1 0 1 tcp 40 ------- 0 0.0 1.0 0 0
- 0.1 0 1 tcp 40 ------- 0 0.0 1.0 0 0
+ 0.1 2 3 cbr 210 ------- 0 2.0 3.0 0 1
- 0.1 2 3 cbr 210 ------- 0 2.0 3.0 0 1
+ 0.10375 2 3 cbr 210 ------- 0 2.0 3.0 1 2
- 0.10375 2 3 cbr 210 ------- 0 2.0 3.0 1 2
+ 0.1075 2 3 cbr 210 ------- 0 2.0 3.0 2 3
- 0.1075 2 3 cbr 210 ------- 0 2.0 3.0 2 3
r 0.110107 0 1 tcp 40 ------- 0 0.0 1.0 0 0
+ 0.110107 1 0 ack 40 ------- 0 1.0 0.0 0 4
- 0.110107 1 0 ack 40 ------- 0 1.0 0.0 0 4
r 0.11056 2 3 cbr 210 ------- 0 2.0 3.0 0 1
+ 0.11125 2 3 cbr 210 ------- 0 2.0 3.0 3 5
- 0.11125 2 3 cbr 210 ------- 0 2.0 3.0 3 5
r 0.11431 2 3 cbr 210 ------- 0 2.0 3.0 1 2
+ 0.115 2 3 cbr 210 ------- 0 2.0 3.0 4 6
- 0.115 2 3 cbr 210 ------- 0 2.0 3.0 4 6
r 0.11806 2 3 cbr 210 ------- 0 2.0 3.0 2 3
+ 0.11875 2 3 cbr 210 ------- 0 2.0 3.0 5 7
- 0.11875 2 3 cbr 210 ------- 0 2.0 3.0 5 7
r 0.120213 1 0 ack 40 ------- 0 1.0 0.0 0 4
+ 0.120213 0 1 tcp 1040 ------- 0 0.0 1.0 1 8
- 0.120213 0 1 tcp 1040 ------- 0 0.0 1.0 1 8
+ 0.120213 0 1 tcp 1040 ------- 0 0.0 1.0 2 9
r 0.12181 2 3 cbr 210 ------- 0 2.0 3.0 3 5
+ 0.1225 2 3 cbr 210 ------- 0 2.0 3.0 6 10
- 0.1225 2 3 cbr 210 ------- 0 2.0 3.0 6 10
- 0.122987 0 1 tcp 1040 ------- 0 0.0 1.0 2 9
r 0.12556 2 3 cbr 210 ------- 0 2.0 3.0 4 6
+ 0.12625 2 3 cbr 210 ------- 0 2.0 3.0 7 11
- 0.12625 2 3 cbr 210 ------- 0 2.0 3.0 7 11
r 0.12931 2 3 cbr 210 ------- 0 2.0 3.0 5 7
+ 0.13 2 3 cbr 210 ------- 0 2.0 3.0 8 12
- 0.13 2 3 cbr 210 ------- 0 2.0 3.0 8 12
r 0.132987 0 1 tcp 1040 ------- 0 0.0 1.0 1 8
+ 0.132987 1 0 ack 40 ------- 0 1.0 0.0 1 13
- 0.132987 1 0 ack 40 ------- 0 1.0 0.0 1 13
r 0.13306 2 3 cbr 210 ------- 0 2.0 3.0 6 10
+ 0.13375 2 3 cbr 210 ------- 0 2.0 3.0 9 14
- 0.13375 2 3 cbr 210 ------- 0 2.0 3.0 9 14
r 0.13576 0 1 tcp 1040 ------- 0 0.0 1.0 2 9
+ 0.13576 1 0 ack 40 ------- 0 1.0 0.0 2 15
- 0.13576 1 0 ack 40 ------- 0 1.0 0.0 2 15
r 0.13681 2 3 cbr 210 ------- 0 2.0 3.0 7 11
+ 0.1375 2 3 cbr 210 ------- 0 2.0 3.0 10 16
- 0.1375 2 3 cbr 210 ------- 0 2.0 3.0 10 16
r 0.14056 2 3 cbr 210 ------- 0 2.0 3.0 8 12
+ 0.14125 2 3 cbr 210 ------- 0 2.0 3.0 11 17
- 0.14125 2 3 cbr 210 ------- 0 2.0 3.0 11 17
r 0.143093 1 0 ack 40 ------- 0 1.0 0.0 1 13
+ 0.143093 0 1 tcp 1040 ------- 0 0.0 1.0 3 18
- 0.143093 0 1 tcp 1040 ------- 0 0.0 1.0 3 18
+ 0.143093 0 1 tcp 1040 ------- 0 0.0 1.0 4 19
r 0.14431 2 3 cbr 210 ------- 0 2.0 3.0 9 14
+ 0.145 2 3 cbr 210 ------- 0 2.0 3.0 12 20
- 0.145 2 3 cbr 210 ------- 0 2.0 3.0 12 20
- 0.145867 0 1 tcp 1040 ------- 0 0.0 1.0 4 19
r 0.145867 1 0 ack 40 ------- 0 1.0 0.0 2 15
+ 0.145867 0 1 tcp 1040 ------- 0 0.0 1.0 5 21
+ 0.145867 0 1 tcp 1040 ------- 0 0.0 1.0 6 22
r 0.14806 2 3 cbr 210 ------- 0 2.0 3.0 10 16
- 0.14864 0 1 tcp 1040 ------- 0 0.0 1.0 5 21
+ 0.14875 2 3 cbr 210 ------- 0 2.0 3.0 13 23
- 0.14875 2 3 cbr 210 ------- 0 2.0 3.0 13 23
- 0.151413 0 1 tcp 1040 ------- 0 0.0 1.0 6 22
r 0.15181 2 3 cbr 210 ------- 0 2.0 3.0 11 17
+ 0.1525 2 3 cbr 210 ------- 0 2.0 3.0 14 24
- 0.1525 2 3 cbr 210 ------- 0 2.0 3.0 14 24
r 0.15556 2 3 cbr 210 ------- 0 2.0 3.0 12 20
r 0.155867 0 1 tcp 1040 ------- 0 0.0 1.0 3 18
+ 0.155867 1 0 ack 40 ------- 0 1.0 0.0 3 25
- 0.155867 1 0 ack 40 ------- 0 1.0 0.0 3 25
+ 0.15625 2 3 cbr 210 ------- 0 2.0 3.0 15 26
- 0.15625 2 3 cbr 210 ------- 0 2.0 3.0 15 26
r 0.15864 0 1 tcp 1040 ------- 0 0.0 1.0 4 19
+ 0.15864 1 0 ack 40 ------- 0 1.0 0.0 4 27
- 0.15864 1 0 ack 40 ------- 0 1.0 0.0 4 27
r 0.15931 2 3 cbr 210 ------- 0 2.0 3.0 13 23
+ 0.16 2 3 cbr 210 ------- 0 2.0 3.0 16 28
- 0.16 2 3 cbr 210 ------- 0 2.0 3.0 16 28
r 0.161413 0 1 tcp 1040 ------- 0 0.0 1.0 5 21
+ 0.161413 1 0 ack 40 ------- 0 1.0 0.0 5 29
- 0.161413 1 0 ack 40 ------- 0 1.0 0.0 5 29
r 0.16306 2 3 cbr 210 ------- 0 2.0 3.0 14 24
+ 0.16375 2 3 cbr 210 ------- 0 2.0 3.0 17 30
- 0.16375 2 3 cbr 210 ------- 0 2.0 3.0 17 30
r 0.164187 0 1 tcp 1040 ------- 0 0.0 1.0 6 22
+ 0.164187 1 0 ack 40 ------- 0 1.0 0.0 6 31
- 0.164187 1 0 ack 40 ------- 0 1.0 0.0 6 31
r 0.165973 1 0 ack 40 ------- 0 1.0 0.0 3 25
+ 0.165973 0 1 tcp 1040 ------- 0 0.0 1.0 7 32
- 0.165973 0 1 tcp 1040 ------- 0 0.0 1.0 7 32
+ 0.165973 0 1 tcp 1040 ------- 0 0.0 1.0 8 33
r 0.16681 2 3 cbr 210 ------- 0 2.0 3.0 15 26
+ 0.1675 2 3 cbr 210 ------- 0 2.0 3.0 18 34
- 0.1675 2 3 cbr 210 ------- 0 2.0 3.0 18 34
r 0.168747 1 0 ack 40 ------- 0 1.0 0.0 4 27
+ 0.168747 0 1 tcp 1040 ------- 0 0.0 1.0 9 35
+ 0.168747 0 1 tcp 1040 ------- 0 0.0 1.0 10 36
- 0.168747 0 1 tcp 1040 ------- 0 0.0 1.0 8 33
r 0.17056 2 3 cbr 210 ------- 0 2.0 3.0 16 28
+ 0.17125 2 3 cbr 210 ------- 0 2.0 3.0 19 37
- 0.17125 2 3 cbr 210 ------- 0 2.0 3.0 19 37
r 0.17152 1 0 ack 40 ------- 0 1.0 0.0 5 29
+ 0.17152 0 1 tcp 1040 ------- 0 0.0 1.0 11 38
+ 0.17152 0 1 tcp 1040 ------- 0 0.0 1.0 12 39
- 0.17152 0 1 tcp 1040 ------- 0 0.0 1.0 9 35
r 0.174293 1 0 ack 40 ------- 0 1.0 0.0 6 31
+ 0.174293 0 1 tcp 1040 ------- 0 0.0 1.0 13 40
+ 0.174293 0 1 tcp 1040 ------- 0 0.0 1.0 14 41
- 0.174293 0 1 tcp 1040 ------- 0 0.0 1.0 10 36
r 0.17431 2 3 cbr 210 ------- 0 2.0 3.0 17 30
+ 0.175 2 3 cbr 210 ------- 0 2.0 3.0 20 42
- 0.175 2 3 cbr 210 ------- 0 2.0 3.0 20 42
- 0.177067 0 1 tcp 1040 ------- 0 0.0 1.0 11 38
r 0.17806 2 3 cbr 210 ------- 0 2.0 3.0 18 34
r 0.178747 0 1 tcp 1040 ------- 0 0.0 1.0 7 32
+ 0.178747 1 0 ack 40 ------- 0 1.0 0.0 7 43
- 0.178747 1 0 ack 40 ------- 0 1.0 0.0 7 43
+ 0.17875 2 3 cbr 210 ------- 0 2.0 3.0 21 44
- 0.17875 2 3 cbr 210 ------- 0 2.0 3.0 21 44
- 0.17984 0 1 tcp 1040 ------- 0 0.0 1.0 12 39
r 0.18152 0 1 tcp 1040 ------- 0 0.0 1.0 8 33
+ 0.18152 1 0 ack 40 ------- 0 1.0 0.0 8 45
- 0.18152 1 0 ack 40 ------- 0 1.0 0.0 8 45
r 0.18181 2 3 cbr 210 ------- 0 2.0 3.0 19 37
+ 0.1825 2 3 cbr 210 ------- 0 2.0 3.0 22 46
- 0.1825 2 3 cbr 210 ------- 0 2.0 3.0 22 46
- 0.182613 0 1 tcp 1040 ------- 0 0.0 1.0 13 40
r 0.184293 0 1 tcp 1040 ------- 0 0.0 1.0 9 35
+ 0.184293 1 0 ack 40 ------- 0 1.0 0.0 9 47
- 0.184293 1 0 ack 40 ------- 0 1.0 0.0 9 47
- 0.185387 0 1 tcp 1040 ------- 0 0.0 1.0 14 41
r 0.18556 2 3 cbr 210 ------- 0 2.0 3.0 20 42
+ 0.18625 2 3 cbr 210 ------- 0 2.0 3.0 23 48
- 0.18625 2 3 cbr 210 ------- 0 2.0 3.0 23 48
r 0.187067 0 1 tcp 1040 ------- 0 0.0 1.0 10 36
+ 0.187067 1 0 ack 40 ------- 0 1.0 0.0 10 49
- 0.187067 1 0 ack 40 ------- 0 1.0 0.0 10 49
r 0.188853 1 0 ack 40 ------- 0 1.0 0.0 7 43
+ 0.188853 0 1 tcp 1040 ------- 0 0.0 1.0 15 50
- 0.188853 0 1 tcp 1040 ------- 0 0.0 1.0 15 50
+ 0.188853 0 1 tcp 1040 ------- 0 0.0 1.0 16 51
r 0.18931 2 3 cbr 210 ------- 0 2.0 3.0 21 44
r 0.18984 0 1 tcp 1040 ------- 0 0.0 1.0 11 38
+ 0.18984 1 0 ack 40 ------- 0 1.0 0.0 11 52
- 0.18984 1 0 ack 40 ------- 0 1.0 0.0 11 52
+ 0.19 2 3 cbr 210 ------- 0 2.0 3.0 24 53
- 0.19 2 3 cbr 210 ------- 0 2.0 3.0 24 53
r 0.191627 1 0 ack 40 ------- 0 1.0 0.0 8 45
+ 0.191627 0 1 tcp 1040 ------- 0 0.0 1.0 17 54
+ 0.191627 0 1 tcp 1040 ------- 0 0.0 1.0 18 55
- 0.191627 0 1 tcp 1040 ------- 0 0.0 1.0 16 51
r 0.192613 0 1 tcp 1040 ------- 0 0.0 1.0 12 39
+ 0.192613 1 0 ack 40 ------- 0 1.0 0.0 12 56
- 0.192613 1 0 ack 40 ------- 0 1.0 0.0 12 56
r 0.19306 2 3 cbr 210 ------- 0 2.0 3.0 22 46
+ 0.19375 2 3 cbr 210 ------- 0 2.0 3.0 25 57
- 0.19375 2 3 cbr 210 ------- 0 2.0 3.0 25 57
r 0.1944 1 0 ack 40 ------- 0 1.0 0.0 9 47
+ 0.1944 0 1 tcp 1040 ------- 0 0.0 1.0 19 58
+ 0.1944 0 1 tcp 1040 ------- 0 0.0 1.0 20 59
- 0.1944 0 1 tcp 1040 ------- 0 0.0 1.0 17 54
r 0.195387 0 1 tcp 1040 ------- 0 0.0 1.0 13 40
+ 0.195387 1 0 ack 40 ------- 0 1.0 0.0 13 60
- 0.195387 1 0 ack 40 ------- 0 1.0 0.0 13 60
r 0.19681 2 3 cbr 210 ------- 0 2.0 3.0 23 48
r 0.197173 1 0 ack 40 ------- 0 1.0 0.0 10 49
+ 0.197173 0 1 tcp 1040 ------- 0 0.0 1.0 21 61
+ 0.197173 0 1 tcp 1040 ------- 0 0.0 1.0 22 62
- 0.197173 0 1 tcp 1040 ------- 0 0.0 1.0 18 55
+ 0.1975 2 3 cbr 210 ------- 0 2.0 3.0 26 63
- 0.1975 2 3 cbr 210 ------- 0 2.0 3.0 26 63
r 0.19816 0 1 tcp 1040 ------- 0 0.0 1.0 14 41
+ 0.19816 1 0 ack 40 ------- 0 1.0 0.0 14 64
- 0.19816 1 0 ack 40 ------- 0 1.0 0.0 14 64
r 0.199947 1 0 ack 40 ------- 0 1.0 0.0 11 52
+ 0.199947 0 1 tcp 1040 ------- 0 0.0 1.0 23 65
+ 0.199947 0 1 tcp 1040 ------- 0 0.0 1.0 24 66
- 0.199947 0 1 tcp 1040 ------- 0 0.0 1.0 19 58
r 0.20056 2 3 cbr 210 ------- 0 2.0 3.0 24 53
+ 0.20125 2 3 cbr 210 ------- 0 2.0 3.0 27 67
- 0.20125 2 3 cbr 210 ------- 0 2.0 3.0 27 67
r 0.201627 0 1 tcp 1040 ------- 0 0.0 1.0 15 50
+ 0.201627 1 0 ack 40 ------- 0 1.0 0.0 15 68
- 0.201627 1 0 ack 40 ------- 0 1.0 0.0 15 68
r 0.20272 1 0 ack 40 ------- 0 1.0 0.0 12 56
+ 0.20272 0 1 tcp 1040 ------- 0 0.0 1.0 25 69
+ 0.20272 0 1 tcp 1040 ------- 0 0.0 1.0 26 70
- 0.20272 0 1 tcp 1040 ------- 0 0.0 1.0 20 59
r 0.20431 2 3 cbr 210 ------- 0 2.0 3.0 25 57
r 0.2044 0 1 tcp 1040 ------- 0 0.0 1.0 16 51
+ 0.2044 1 0 ack 40 ------- 0 1.0 0.0 16 71
- 0.2044 1 0 ack 40 ------- 0 1.0 0.0 16 71
+ 0.205 2 3 cbr 210 ------- 0 2.0 3.0 28 72
- 0.205 2 3 cbr 210 ------- 0 2.0 3.0 28 72
r 0.205493 1 0 ack 40 ------- 0 1.0 0.0 13 60
+ 0.205493 0 1 tcp 1040 ------- 0 0.0 1.0 27 73
+ 0.205493 0 1 tcp 1040 ------- 0 0.0 1.0 28 74
- 0.205493 0 1 tcp 1040 ------- 0 0.0 1.0 21 61
r 0.207173 0 1 tcp 1040 ------- 0 0.0 1.0 17 54
+ 0.207173 1 0 ack 40 ------- 0 1.0 0.0 17 75
- 0.207173 1 0 ack 40 ------- 0 1.0 0.0 17 75
r 0.20806 2 3 cbr 210 ------- 0 2.0 3.0 26 63
r 0.208267 1 0 ack 40 ------- 0 1.0 0.0 14 64
+ 0.208267 0 1 tcp 1040 ------- 0 0.0 1.0 29 76
+ 0.208267 0 1 tcp 1040 ------- 0 0.0 1.0 30 77
- 0.208267 0 1 tcp 1040 ------- 0 0.0 1.0 22 62
+ 0.20875 2 3 cbr 210 ------- 0 2.0 3.0 29 78
- 0.20875 2 3 cbr 210 ------- 0 2.0 3.0 29 78
r 0.209947 0 1 tcp 1040 ------- 0 0.0 1.0 18 55
+ 0.209947 1 0 ack 40 ------- 0 1.0 0.0 18 79
- 0.209947 1 0 ack 40 ------- 0 1.0 0.0 18 79
- 0.21104 0 1 tcp 1040 ------- 0 0.0 1.0 23 65
r 0.211733 1 0 ack 40 ------- 0 1.0 0.0 15 68
+ 0.211733 0 1 tcp 1040 ------- 0 0.0 1.0 31 80
+ 0.211733 0 1 tcp 1040 ------- 0 0.0 1.0 32 81
r 0.21181 2 3 cbr 210 ------- 0 2.0 3.0 27 67
+ 0.2125 2 3 cbr 210 ------- 0 2.0 3.0 30 82
- 0.2125 2 3 cbr 210 ------- 0 2.0 3.0 30 82
r 0.21272 0 1 tcp 1040 ------- 0 0.0 1.0 19 58
+ 0.21272 1 0 ack 40 ------- 0 1.0 0.0 19 83
- 0.21272 1 0 ack 40 ------- 0 1.0 0.0 19 83
- 0.213813 0 1 tcp 1040 ------- 0 0.0 1.0 24 66
r 0.214507 1 0 ack 40 ------- 0 1.0 0.0 16 71
+ 0.214507 0 1 tcp 1040 ------- 0 0.0 1.0 33 84
+ 0.214507 0 1 tcp 1040 ------- 0 0.0 1.0 34 85
r 0.215493 0 1 tcp 1040 ------- 0 0.0 1.0 20 59
+ 0.215493 1 0 ack 40 ------- 0 1.0 0.0 20 86
- 0.215493 1 0 ack 40 ------- 0 1.0 0.0 20 86
r 0.21556 2 3 cbr 210 ------- 0 2.0 3.0 28 72
+ 0.21625 2 3 cbr 210 ------- 0 2.0 3.0 31 87
- 0.21625 2 3 cbr 210 ------- 0 2.0 3.0 31 87
- 0.216587 0 1 tcp 1040 ------- 0 0.0 1.0 25 69
r 0.21728 1 0 ack 40 ------- 0 1.0 0.0 17 75
+ 0.21728 0 1 tcp 1040 ------- 0 0.0 1.0 35 88
+ 0.21728 0 1 tcp 1040 ------- 0 0.0 1.0 36 89
r 0.218267 0 1 tcp 1040 ------- 0 0.0 1.0 21 61
+ 0.218267 1 0 ack 40 ------- 0 1.0 0.0 21 90
- 0.218267 1 0 ack 40 ------- 0 1.0 0.0 21 90
r 0.21931 2 3 cbr 210 ------- 0 2.0 3.0 29 78
- 0.21936 0 1 tcp 1040 ------- 0 0.0 1.0 26 70
+ 0.22 2 3 cbr 210 ------- 0 2.0 3.0 32 91
- 0.22 2 3 cbr 210 ------- 0 2.0 3.0 32 91
r 0.220053 1 0 ack 40 ------- 0 1.0 0.0 18 79
+ 0.220053 0 1 tcp 1040 ------- 0 0.0 1.0 37 92
+ 0.220053 0 1 tcp 1040 ------- 0 0.0 1.0 38 93
r 0.22104 0 1 tcp 1040 ------- 0 0.0 1.0 22 62
+ 0.22104 1 0 ack 40 ------- 0 1.0 0.0 22 94
- 0.22104 1 0 ack 40 ------- 0 1.0 0.0 22 94
- 0.222133 0 1 tcp 1040 ------- 0 0.0 1.0 27 73
r 0.222827 1 0 ack 40 ------- 0 1.0 0.0 19 83
+ 0.222827 0 1 tcp 1040 ------- 0 0.0 1.0 39 95
r 0.22306 2 3 cbr 210 ------- 0 2.0 3.0 30 82
+ 0.22375 2 3 cbr 210 ------- 0 2.0 3.0 33 96
- 0.22375 2 3 cbr 210 ------- 0 2.0 3.0 33 96
r 0.223813 0 1 tcp 1040 ------- 0 0.0 1.0 23 65
+ 0.223813 1 0 ack 40 ------- 0 1.0 0.0 23 97
- 0.223813 1 0 ack 40 ------- 0 1.0 0.0 23 97
- 0.224907 0 1 tcp 1040 ------- 0 0.0 1.0 28 74
r 0.2256 1 0 ack 40 ------- 0 1.0 0.0 20 86
+ 0.2256 0 1 tcp 1040 ------- 0 0.0 1.0 40 98
r 0.226587 0 1 tcp 1040 ------- 0 0.0 1.0 24 66
+ 0.226587 1 0 ack 40 ------- 0 1.0 0.0 24 99
- 0.226587 1 0 ack 40 ------- 0 1.0 0.0 24 99
r 0.22681 2 3 cbr 210 ------- 0 2.0 3.0 31 87
+ 0.2275 2 3 cbr 210 ------- 0 2.0 3.0 34 100
- 0.2275 2 3 cbr 210 ------- 0 2.0 3.0 34 100
- 0.22768 0 1 tcp 1040 ------- 0 0.0 1.0 29 76
r 0.228373 1 0 ack 40 ------- 0 1.0 0.0 21 90
+ 0.228373 0 1 tcp 1040 ------- 0 0.0 1.0 41 101
r 0.22936 0 1 tcp 1040 ------- 0 0.0 1.0 25 69
+ 0.22936 1 0 ack 40 ------- 0 1.0 0.0 25 102
- 0.22936 1 0 ack 40 ------- 0 1.0 0.0 25 102
- 0.230453 0 1 tcp 1040 ------- 0 0.0 1.0 30 77
r 0.23056 2 3 cbr 210 ------- 0 2.0 3.0 32 91
r 0.231147 1 0 ack 40 ------- 0 1.0 0.0 22 94
+ 0.231147 0 1 tcp 1040 ------- 0 0.0 1.0 42 103
+ 0.23125 2 3 cbr 210 ------- 0 2.0 3.0 35 104
- 0.23125 2 3 cbr 210 ------- 0 2.0 3.0 35 104
r 0.232133 0 1 tcp 1040 ------- 0 0.0 1.0 26 70
+ 0.232133 1 0 ack 40 ------- 0 1.0 0.0 26 105
- 0.232133 1 0 ack 40 ------- 0 1.0 0.0 26 105
- 0.233227 0 1 tcp 1040 ------- 0 0.0 1.0 31 80
r 0.23392 1 0 ack 40 ------- 0 1.0 0.0 23 97
+ 0.23392 0 1 tcp 1040 ------- 0 0.0 1.0 43 106
r 0.23431 2 3 cbr 210 ------- 0 2.0 3.0 33 96
r 0.234907 0 1 tcp 1040 ------- 0 0.0 1.0 27 73
+ 0.234907 1 0 ack 40 ------- 0 1.0 0.0 27 107
- 0.234907 1 0 ack 40 ------- 0 1.0 0.0 27 107
+ 0.235 2 3 cbr 210 ------- 0 2.0 3.0 36 108
- 0.235 2 3 cbr 210 ------- 0 2.0 3.0 36 108
- 0.236 0 1 tcp 1040 ------- 0 0.0 1.0 32 81
r 0.236693 1 0 ack 40 ------- 0 1.0 0.0 24 99
+ 0.236693 0 1 tcp 1040 ------- 0 0.0 1.0 44 109
r 0.23768 0 1 tcp 1040 ------- 0 0.0 1.0 28 74
+ 0.23768 1 0 ack 40 ------- 0 1.0 0.0 28 110
- 0.23768 1 0 ack 40 ------- 0 1.0 0.0 28 110
r 0.23806 2 3 cbr 210 ------- 0 2.0 3.0 34 100
+ 0.23875 2 3 cbr 210 ------- 0 2.0 3.0 37 111
- 0.23875 2 3 cbr 210 ------- 0 2.0 3.0 37 111
- 0.238773 0 1 tcp 1040 ------- 0 0.0 1.0 33 84
r 0.239467 1 0 ack 40 ------- 0 1.0 0.0 25 102
+ 0.239467 0 1 tcp 1040 ------- 0 0.0 1.0 45 112
r 0.240453 0 1 tcp 1040 ------- 0 0.0 1.0 29 76
+ 0.240453 1 0 ack 40 ------- 0 1.0 0.0 29 113
- 0.240453 1 0 ack 40 ------- 0 1.0 0.0 29 113
- 0.241547 0 1 tcp 1040 ------- 0 0.0 1.0 34 85
r 0.24181 2 3 cbr 210 ------- 0 2.0 3.0 35 104
r 0.24224 1 0 ack 40 ------- 0 1.0 0.0 26 105
+ 0.24224 0 1 tcp 1040 ------- 0 0.0 1.0 46 114
+ 0.2425 2 3 cbr 210 ------- 0 2.0 3.0 38 115
- 0.2425 2 3 cbr 210 ------- 0 2.0 3.0 38 115
r 0.243227 0 1 tcp 1040 ------- 0 0.0 1.0 30 77
+ 0.243227 1 0 ack 40 ------- 0 1.0 0.0 30 116
- 0.243227 1 0 ack 40 ------- 0 1.0 0.0 30 116
- 0.24432 0 1 tcp 1040 ------- 0 0.0 1.0 35 88
r 0.245013 1 0 ack 40 ------- 0 1.0 0.0 27 107
+ 0.245013 0 1 tcp 1040 ------- 0 0.0 1.0 47 117
r 0.24556 2 3 cbr 210 ------- 0 2.0 3.0 36 108
r 0.246 0 1 tcp 1040 ------- 0 0.0 1.0 31 80
+ 0.246 1 0 ack 40 ------- 0 1.0 0.0 31 118
- 0.246 1 0 ack 40 ------- 0 1.0 0.0 31 118
+ 0.24625 2 3 cbr 210 ------- 0 2.0 3.0 39 119
- 0.24625 2 3 cbr 210 ------- 0 2.0 3.0 39 119
- 0.247093 0 1 tcp 1040 ------- 0 0.0 1.0 36 89
r 0.247787 1 0 ack 40 ------- 0 1.0 0.0 28 110
+ 0.247787 0 1 tcp 1040 ------- 0 0.0 1.0 48 120
r 0.248773 0 1 tcp 1040 ------- 0 0.0 1.0 32 81
+ 0.248773 1 0 ack 40 ------- 0 1.0 0.0 32 121
- 0.248773 1 0 ack 40 ------- 0 1.0 0.0 32 121
r 0.24931 2 3 cbr 210 ------- 0 2.0 3.0 37 111
- 0.249867 0 1 tcp 1040 ------- 0 0.0 1.0 37 92
+ 0.25 2 3 cbr 210 ------- 0 2.0 3.0 40 122
- 0.25 2 3 cbr 210 ------- 0 2.0 3.0 40 122
r 0.25056 1 0 ack 40 ------- 0 1.0 0.0 29 113
+ 0.25056 0 1 tcp 1040 ------- 0 0.0 1.0 49 123
r 0.251547 0 1 tcp 1040 ------- 0 0.0 1.0 33 84
+ 0.251547 1 0 ack 40 ------- 0 1.0 0.0 33 124
- 0.251547 1 0 ack 40 ------- 0 1.0 0.0 33 124
- 0.25264 0 1 tcp 1040 ------- 0 0.0 1.0 38 93
r 0.25306 2 3 cbr 210 ------- 0 2.0 3.0 38 115
r 0.253333 1 0 ack 40 ------- 0 1.0 0.0 30 116
+ 0.253333 0 1 tcp 1040 ------- 0 0.0 1.0 50 125
+ 0.25375 2 3 cbr 210 ------- 0 2.0 3.0 41 126
- 0.25375 2 3 cbr 210 ------- 0 2.0 3.0 41 126
r 0.25432 0 1 tcp 1040 ------- 0 0.0 1.0 34 85
+ 0.25432 1 0 ack 40 ------- 0 1.0 0.0 34 127
- 0.25432 1 0 ack 40 ------- 0 1.0 0.0 34 127
- 0.255413 0 1 tcp 1040 ------- 0 0.0 1.0 39 95
r 0.256107 1 0 ack 40 ------- 0 1.0 0.0 31 118
+ 0.256107 0 1 tcp 1040 ------- 0 0.0 1.0 51 128
r 0.25681 2 3 cbr 210 ------- 0 2.0 3.0 39 119
r 0.257093 0 1 tcp 1040 ------- 0 0.0 1.0 35 88
+ 0.257093 1 0 ack 40 ------- 0 1.0 0.0 35 129
- 0.257093 1 0 ack 40 ------- 0 1.0 0.0 35 129
+ 0.2575 2 3 cbr 210 ------- 0 2.0 3.0 42 130
- 0.2575 2 3 cbr 210 ------- 0 2.0 3.0 42 130
- 0.258187 0 1 tcp 1040 ------- 0 0.0 1.0 40 98
r 0.25888 1 0 ack 40 ------- 0 1.0 0.0 32 121
+ 0.25888 0 1 tcp 1040 ------- 0 0.0 1.0 52 131
r 0.259867 0 1 tcp 1040 ------- 0 0.0 1.0 36 89
+ 0.259867 1 0 ack 40 ------- 0 1.0 0.0 36 132
- 0.259867 1 0 ack 40 ------- 0 1.0 0.0 36 132
r 0.26056 2 3 cbr 210 ------- 0 2.0 3.0 40 122
- 0.26096 0 1 tcp 1040 ------- 0 0.0 1.0 41 101
+ 0.26125 2 3 cbr 210 ------- 0 2.0 3.0 43 133
- 0.26125 2 3 cbr 210 ------- 0 2.0 3.0 43 133
r 0.261653 1 0 ack 40 ------- 0 1.0 0.0 33 124
+ 0.261653 0 1 tcp 1040 ------- 0 0.0 1.0 53 134
r 0.26264 0 1 tcp 1040 ------- 0 0.0 1.0 37 92
+ 0.26264 1 0 ack 40 ------- 0 1.0 0.0 37 135
- 0.26264 1 0 ack 40 ------- 0 1.0 0.0 37 135
- 0.263733 0 1 tcp 1040 ------- 0 0.0 1.0 42 103
r 0.26431 2 3 cbr 210 ------- 0 2.0 3.0 41 126
r 0.264427 1 0 ack 40 ------- 0 1.0 0.0 34 127
+ 0.264427 0 1 tcp 1040 ------- 0 0.0 1.0 54 136
+ 0.265 2 3 cbr 210 ------- 0 2.0 3.0 44 137
- 0.265 2 3 cbr 210 ------- 0 2.0 3.0 44 137
r 0.265413 0 1 tcp 1040 ------- 0 0.0 1.0 38 93
+ 0.265413 1 0 ack 40 ------- 0 1.0 0.0 38 138
- 0.265413 1 0 ack 40 ------- 0 1.0 0.0 38 138
- 0.266507 0 1 tcp 1040 ------- 0 0.0 1.0 43 106
r 0.2672 1 0 ack 40 ------- 0 1.0 0.0 35 129
+ 0.2672 0 1 tcp 1040 ------- 0 0.0 1.0 55 139
r 0.26806 2 3 cbr 210 ------- 0 2.0 3.0 42 130
r 0.268187 0 1 tcp 1040 ------- 0 0.0 1.0 39 95
+ 0.268187 1 0 ack 40 ------- 0 1.0 0.0 39 140
- 0.268187 1 0 ack 40 ------- 0 1.0 0.0 39 140
+ 0.26875 2 3 cbr 210 ------- 0 2.0 3.0 45 141
- 0.26875 2 3 cbr 210 ------- 0 2.0 3.0 45 141
- 0.26928 0 1 tcp 1040 ------- 0 0.0 1.0 44 109
r 0.269973 1 0 ack 40 ------- 0 1.0 0.0 36 132
+ 0.269973 0 1 tcp 1040 ------- 0 0.0 1.0 56 142
r 0.27096 0 1 tcp 1040 ------- 0 0.0 1.0 40 98
+ 0.27096 1 0 ack 40 ------- 0 1.0 0.0 40 143
- 0.27096 1 0 ack 40 ------- 0 1.0 0.0 40 143
r 0.27181 2 3 cbr 210 ------- 0 2.0 3.0 43 133
- 0.272053 0 1 tcp 1040 ------- 0 0.0 1.0 45 112
+ 0.2725 2 3 cbr 210 ------- 0 2.0 3.0 46 144
- 0.2725 2 3 cbr 210 ------- 0 2.0 3.0 46 144
r 0.272747 1 0 ack 40 ------- 0 1.0 0.0 37 135
+ 0.272747 0 1 tcp 1040 ------- 0 0.0 1.0 57 145
r 0.273733 0 1 tcp 1040 ------- 0 0.0 1.0 41 101
+ 0.273733 1 0 ack 40 ------- 0 1.0 0.0 41 146
- 0.273733 1 0 ack 40 ------- 0 1.0 0.0 41 146
- 0.274827 0 1 tcp 1040 ------- 0 0.0 1.0 46 114
r 0.27552 1 0 ack 40 ------- 0 1.0 0.0 38 138
+ 0.27552 0 1 tcp 1040 ------- 0 0.0 1.0 58 147
r 0.27556 2 3 cbr 210 ------- 0 2.0 3.0 44 137
+ 0.27625 2 3 cbr 210 ------- 0 2.0 3.0 47 148
- 0.27625 2 3 cbr 210 ------- 0 2.0 3.0 47 148
r 0.276507 0 1 tcp 1040 ------- 0 0.0 1.0 42 103
+ 0.276507 1 0 ack 40 ------- 0 1.0 0.0 42 149
- 0.276507 1 0 ack 40 ------- 0 1.0 0.0 42 149
- 0.2776 0 1 tcp 1040 ------- 0 0.0 1.0 47 117
r 0.278293 1 0 ack 40 ------- 0 1.0 0.0 39 140
+ 0.278293 0 1 tcp 1040 ------- 0 0.0 1.0 59 150
r 0.27928 0 1 tcp 1040 ------- 0 0.0 1.0 43 106
+ 0.27928 1 0 ack 40 ------- 0 1.0 0.0 43 151
- 0.27928 1 0 ack 40 ------- 0 1.0 0.0 43 151
r 0.27931 2 3 cbr 210 ------- 0 2.0 3.0 45 141
+ 0.28 2 3 cbr 210 ------- 0 2.0 3.0 48 152
- 0.28 2 3 cbr 210 ------- 0 2.0 3.0 48 152
- 0.280373 0 1 tcp 1040 ------- 0 0.0 1.0 48 120
r 0.281067 1 0 ack 40 ------- 0 1.0 0.0 40 143
+ 0.281067 0 1 tcp 1040 ------- 0 0.0 1.0 60 153
r 0.282053 0 1 tcp 1040 ------- 0 0.0 1.0 44 109
+ 0.282053 1 0 ack 40 ------- 0 1.0 0.0 44 154
- 0.282053 1 0 ack 40 ------- 0 1.0 0.0 44 154
r 0.28306 2 3 cbr 210 ------- 0 2.0 3.0 46 144
- 0.283147 0 1 tcp 1040 ------- 0 0.0 1.0 49 123
+ 0.28375 2 3 cbr 210 ------- 0 2.0 3.0 49 155
- 0.28375 2 3 cbr 210 ------- 0 2.0 3.0 49 155
r 0.28384 1 0 ack 40 ------- 0 1.0 0.0 41 146
+ 0.28384 0 1 tcp 1040 ------- 0 0.0 1.0 61 156
r 0.284827 0 1 tcp 1040 ------- 0 0.0 1.0 45 112
+ 0.284827 1 0 ack 40 ------- 0 1.0 0.0 45 157
- 0.284827 1 0 ack 40 ------- 0 1.0 0.0 45 157
- 0.28592 0 1 tcp 1040 ------- 0 0.0 1.0 50 125
r 0.286613 1 0 ack 40 ------- 0 1.0 0.0 42 149
+ 0.286613 0 1 tcp 1040 ------- 0 0.0 1.0 62 158
r 0.28681 2 3 cbr 210 ------- 0 2.0 3.0 47 148
+ 0.2875 2 3 cbr 210 ------- 0 2.0 3.0 50 159
- 0.2875 2 3 cbr 210 ------- 0 2.0 3.0 50 159
r 0.2876 0 1 tcp 1040 ------- 0 0.0 1.0 46 114
+ 0.2876 1 0 ack 40 ------- 0 1.0 0.0 46 160
- 0.2876 1 0 ack 40 ------- 0 1.0 0.0 46 160
- 0.288693 0 1 tcp 1040 ------- 0 0.0 1.0 51 128
r 0.289387 1 0 ack 40 ------- 0 1.0 0.0 43 151
+ 0.289387 0 1 tcp 1040 ------- 0 0.0 1.0 63 161
r 0.290373 0 1 tcp 1040 ------- 0 0.0 1.0 47 117
+ 0.290373 1 0 ack 40 ------- 0 1.0 0.0 47 162
- 0.290373 1 0 ack 40 ------- 0 1.0 0.0 47 162
r 0.29056 2 3 cbr 210 ------- 0 2.0 3.0 48 152
+ 0.29125 2 3 cbr 210 ------- 0 2.0 3.0 51 163
- 0.29125 2 3 cbr 210 ------- 0 2.0 3.0 51 163
- 0.291467 0 1 tcp 1040 ------- 0 0.0 1.0 52 131
r 0.29216 1 0 ack 40 ------- 0 1.0 0.0 44 154
+ 0.29216 0 1 tcp 1040 ------- 0 0.0 1.0 64 164
r 0.293147 0 1 tcp 1040 ------- 0 0.0 1.0 48 120
+ 0.293147 1 0 ack 40 ------- 0 1.0 0.0 48 165
- 0.293147 1 0 ack 40 ------- 0 1.0 0.0 48 165
- 0.29424 0 1 tcp 1040 ------- 0 0.0 1.0 53 134
r 0.29431 2 3 cbr 210 ------- 0 2.0 3.0 49 155
r 0.294933 1 0 ack 40 ------- 0 1.0 0.0 45 157
+ 0.294933 0 1 tcp 1040 ------- 0 0.0 1.0 65 166
+ 0.295 2 3 cbr 210 ------- 0 2.0 3.0 52 167
- 0.295 2 3 cbr 210 ------- 0 2.0 3.0 52 167
r 0.29592 0 1 tcp 1040 ------- 0 0.0 1.0 49 123
+ 0.29592 1 0 ack 40 ------- 0 1.0 0.0 49 168
- 0.29592 1 0 ack 40 ------- 0 1.0 0.0 49 168
- 0.297013 0 1 tcp 1040 ------- 0 0.0 1.0 54 136
r 0.297707 1 0 ack 40 ------- 0 1.0 0.0 46 160
+ 0.297707 0 1 tcp 1040 ------- 0 0.0 1.0 66 169
r 0.29806 2 3 cbr 210 ------- 0 2.0 3.0 50 159
r 0.298693 0 1 tcp 1040 ------- 0 0.0 1.0 50 125
+ 0.298693 1 0 ack 40 ------- 0 1.0 0.0 50 170
- 0.298693 1 0 ack 40 ------- 0 1.0 0.0 50 170
+ 0.29875 2 3 cbr 210 ------- 0 2.0 3.0 53 171
- 0.29875 2 3 cbr 210 ------- 0 2.0 3.0 53 171
- 0.299787 0 1 tcp 1040 ------- 0 0.0 1.0 55 139
r 0.30048 1 0 ack 40 ------- 0 1.0 0.0 47 162
+ 0.30048 0 1 tcp 1040 ------- 0 0.0 1.0 67 172
r 0.301467 0 1 tcp 1040 ------- 0 0.0 1.0 51 128
+ 0.301467 1 0 ack 40 ------- 0 1.0 0.0 51 173
- 0.301467 1 0 ack 40 ------- 0 1.0 0.0 51 173
r 0.30181 2 3 cbr 210 ------- 0 2.0 3.0 51 163
+ 0.3025 2 3 cbr 210 ------- 0 2.0 3.0 54 174
- 0.3025 2 3 cbr 210 ------- 0 2.0 3.0 54 174
- 0.30256 0 1 tcp 1040 ------- 0 0.0 1.0 56 142
r 0.303253 1 0 ack 40 ------- 0 1.0 0.0 48 165
+ 0.303253 0 1 tcp 1040 ------- 0 0.0 1.0 68 175
r 0.30424 0 1 tcp 1040 ------- 0 0.0 1.0 52 131
+ 0.30424 1 0 ack 40 ------- 0 1.0 0.0 52 176
- 0.30424 1 0 ack 40 ------- 0 1.0 0.0 52 176
- 0.305333 0 1 tcp 1040 ------- 0 0.0 1.0 57 145
r 0.30556 2 3 cbr 210 ------- 0 2.0 3.0 52 167
r 0.306027 1 0 ack 40 ------- 0 1.0 0.0 49 168
+ 0.306027 0 1 tcp 1040 ------- 0 0.0 1.0 69 177
+ 0.30625 2 3 cbr 210 ------- 0 2.0 3.0 55 178
- 0.30625 2 3 cbr 210 ------- 0 2.0 3.0 55 178
r 0.307013 0 1 tcp 1040 ------- 0 0.0 1.0 53 134
+ 0.307013 1 0 ack 40 ------- 0 1.0 0.0 53 179
- 0.307013 1 0 ack 40 ------- 0 1.0 0.0 53 179
- 0.308107 0 1 tcp 1040 ------- 0 0.0 1.0 58 147
r 0.3088 1 0 ack 40 ------- 0 1.0 0.0 50 170
+ 0.3088 0 1 tcp 1040 ------- 0 0.0 1.0 70 180
r 0.30931 2 3 cbr 210 ------- 0 2.0 3.0 53 171
r 0.309787 0 1 tcp 1040 ------- 0 0.0 1.0 54 136
+ 0.309787 1 0 ack 40 ------- 0 1.0 0.0 54 181
- 0.309787 1 0 ack 40 ------- 0 1.0 0.0 54 181
+ 0.31 2 3 cbr 210 ------- 0 2.0 3.0 56 182
- 0.31 2 3 cbr 210 ------- 0 2.0 3.0 56 182
- 0.31088 0 1 tcp 1040 ------- 0 0.0 1.0 59 150
r 0.311573 1 0 ack 40 ------- 0 1.0 0.0 51 173
+ 0.311573 0 1 tcp 1040 ------- 0 0.0 1.0 71 183
r 0.31256 0 1 tcp 1040 ------- 0 0.0 1.0 55 139
+ 0.31256 1 0 ack 40 ------- 0 1.0 0.0 55 184
- 0.31256 1 0 ack 40 ------- 0 1.0 0.0 55 184
r 0.31306 2 3 cbr 210 ------- 0 2.0 3.0 54 174
- 0.313653 0 1 tcp 1040 ------- 0 0.0 1.0 60 153
+ 0.31375 2 3 cbr 210 ------- 0 2.0 3.0 57 185
- 0.31375 2 3 cbr 210 ------- 0 2.0 3.0 57 185
r 0.314347 1 0 ack 40 ------- 0 1.0 0.0 52 176
+ 0.314347 0 1 tcp 1040 ------- 0 0.0 1.0 72 186
r 0.315333 0 1 tcp 1040 ------- 0 0.0 1.0 56 142
+ 0.315333 1 0 ack 40 ------- 0 1.0 0.0 56 187
- 0.315333 1 0 ack 40 ------- 0 1.0 0.0 56 187
- 0.316427 0 1 tcp 1040 ------- 0 0.0 1.0 61 156
r 0.31681 2 3 cbr 210 ------- 0 2.0 3.0 55 178
r 0.31712 1 0 ack 40 ------- 0 1.0 0.0 53 179
+ 0.31712 0 1 tcp 1040 ------- 0 0.0 1.0 73 188
+ 0.3175 2 3 cbr 210 ------- 0 2.0 3.0 58 189
- 0.3175 2 3 cbr 210 ------- 0 2.0 3.0 58 189
r 0.318107 0 1 tcp 1040 ------- 0 0.0 1.0 57 145
+ 0.318107 1 0 ack 40 ------- 0 1.0 0.0 57 190
- 0.318107 1 0 ack 40 ------- 0 1.0 0.0 57 190
- 0.3192 0 1 tcp 1040 ------- 0 0.0 1.0 62 158
r 0.319893 1 0 ack 40 ------- 0 1.0 0.0 54 181
+ 0.319893 0 1 tcp 1040 ------- 0 0.0 1.0 74 191
r 0.32056 2 3 cbr 210 ------- 0 2.0 3.0 56 182
r 0.32088 0 1 tcp 1040 ------- 0 0.0 1.0 58 147
+ 0.32088 1 0 ack 40 ------- 0 1.0 0.0 58 192
- 0.32088 1 0 ack 40 ------- 0 1.0 0.0 58 192
+ 0.32125 2 3 cbr 210 ------- 0 2.0 3.0 59 193
- 0.32125 2 3 cbr 210 ------- 0 2.0 3.0 59 193
- 0.321973 0 1 tcp 1040 ------- 0 0.0 1.0 63 161
r 0.322667 1 0 ack 40 ------- 0 1.0 0.0 55 184
+ 0.322667 0 1 tcp 1040 ------- 0 0.0 1.0 75 194
r 0.323653 0 1 tcp 1040 ------- 0 0.0 1.0 59 150
+ 0.323653 1 0 ack 40 ------- 0 1.0 0.0 59 195
- 0.323653 1 0 ack 40 ------- 0 1.0 0.0 59 195
r 0.32431 2 3 cbr 210 ------- 0 2.0 3.0 57 185
- 0.324747 0 1 tcp 1040 ------- 0 0.0 1.0 64 164
+ 0.325 2 3 cbr 210 ------- 0 2.0 3.0 60 196
- 0.325 2 3 cbr 210 ------- 0 2.0 3.0 60 196
r 0.32544 1 0 ack 40 ------- 0 1.0 0.0 56 187
+ 0.32544 0 1 tcp 1040 ------- 0 0.0 1.0 76 197
r 0.326427 0 1 tcp 1040 ------- 0 0.0 1.0 60 153
+ 0.326427 1 0 ack 40 ------- 0 1.0 0.0 60 198
- 0.326427 1 0 ack 40 ------- 0 1.0 0.0 60 198
- 0.32752 0 1 tcp 1040 ------- 0 0.0 1.0 65 166
r 0.32806 2 3 cbr 210 ------- 0 2.0 3.0 58 189
r 0.328213 1 0 ack 40 ------- 0 1.0 0.0 57 190
+ 0.328213 0 1 tcp 1040 ------- 0 0.0 1.0 77 199
+ 0.32875 2 3 cbr 210 ------- 0 2.0 3.0 61 200
- 0.32875 2 3 cbr 210 ------- 0 2.0 3.0 61 200
r 0.3292 0 1 tcp 1040 ------- 0 0.0 1.0 61 156
+ 0.3292 1 0 ack 40 ------- 0 1.0 0.0 61 201
- 0.3292 1 0 ack 40 ------- 0 1.0 0.0 61 201
- 0.330293 0 1 tcp 1040 ------- 0 0.0 1.0 66 169
r 0.330987 1 0 ack 40 ------- 0 1.0 0.0 58 192
+ 0.330987 0 1 tcp 1040 ------- 0 0.0 1.0 78 202
r 0.33181 2 3 cbr 210 ------- 0 2.0 3.0 59 193
r 0.331973 0 1 tcp 1040 ------- 0 0.0 1.0 62 158
+ 0.331973 1 0 ack 40 ------- 0 1.0 0.0 62 203
- 0.331973 1 0 ack 40 ------- 0 1.0 0.0 62 203
+ 0.3325 2 3 cbr 210 ------- 0 2.0 3.0 62 204
- 0.3325 2 3 cbr 210 ------- 0 2.0 3.0 62 204
- 0.333067 0 1 tcp 1040 ------- 0 0.0 1.0 67 172
r 0.33376 1 0 ack 40 ------- 0 1.0 0.0 59 195
+ 0.33376 0 1 tcp 1040 ------- 0 0.0 1.0 79 205
r 0.334747 0 1 tcp 1040 ------- 0 0.0 1.0 63 161
+ 0.334747 1 0 ack 40 ------- 0 1.0 0.0 63 206
- 0.334747 1 0 ack 40 ------- 0 1.0 0.0 63 206
r 0.33556 2 3 cbr 210 ------- 0 2.0 3.0 60 196
- 0.33584 0 1 tcp 1040 ------- 0 0.0 1.0 68 175
+ 0.33625 2 3 cbr 210 ------- 0 2.0 3.0 63 207
- 0.33625 2 3 cbr 210 ------- 0 2.0 3.0 63 207
r 0.336533 1 0 ack 40 ------- 0 1.0 0.0 60 198
+ 0.336533 0 1 tcp 1040 ------- 0 0.0 1.0 80 208
r 0.33752 0 1 tcp 1040 ------- 0 0.0 1.0 64 164
+ 0.33752 1 0 ack 40 ------- 0 1.0 0.0 64 209
- 0.33752 1 0 ack 40 ------- 0 1.0 0.0 64 209
- 0.338613 0 1 tcp 1040 ------- 0 0.0 1.0 69 177
r 0.339307 1 0 ack 40 ------- 0 1.0 0.0 61 201
+ 0.339307 0 1 tcp 1040 ------- 0 0.0 1.0 81 210
r 0.33931 2 3 cbr 210 ------- 0 2.0 3.0 61 200
+ 0.34 2 3 cbr 210 ------- 0 2.0 3.0 64 211
- 0.34 2 3 cbr 210 ------- 0 2.0 3.0 64 211
r 0.340293 0 1 tcp 1040 ------- 0 0.0 1.0 65 166
+ 0.340293 1 0 ack 40 ------- 0 1.0 0.0 65 212
- 0.340293 1 0 ack 40 ------- 0 1.0 0.0 65 212
- 0.341387 0 1 tcp 1040 ------- 0 0.0 1.0 70 180
r 0.34208 1 0 ack 40 ------- 0 1.0 0.0 62 203
+ 0.34208 0 1 tcp 1040 ------- 0 0.0 1.0 82 213
r 0.34306 2 3 cbr 210 ------- 0 2.0 3.0 62 204
r 0.343067 0 1 tcp 1040 ------- 0 0.0 1.0 66 169
+ 0.343067 1 0 ack 40 ------- 0 1.0 0.0 66 214
- 0.343067 1 0 ack 40 ------- 0 1.0 0.0 66 214
+ 0.34375 2 3 cbr 210 ------- 0 2.0 3.0 65 215
- 0.34375 2 3 cbr 210 ------- 0 2.0 3.0 65 215
- 0.34416 0 1 tcp 1040 ------- 0 0.0 1.0 71 183
r 0.344853 1 0 ack 40 ------- 0 1.0 0.0 63 206
+ 0.344853 0 1 tcp 1040 ------- 0 0.0 1.0 83 216
r 0.34584 0 1 tcp 1040 ------- 0 0.0 1.0 67 172
+ 0.34584 1 0 ack 40 ------- 0 1.0 0.0 67 217
- 0.34584 1 0 ack 40 ------- 0 1.0 0.0 67 217
r 0.34681 2 3 cbr 210 ------- 0 2.0 3.0 63 207
- 0.346933 0 1 tcp 1040 ------- 0 0.0 1.0 72 186
+ 0.3475 2 3 cbr 210 ------- 0 2.0 3.0 66 218
- 0.3475 2 3 cbr 210 ------- 0 2.0 3.0 66 218
r 0.347627 1 0 ack 40 ------- 0 1.0 0.0 64 209
+ 0.347627 0 1 tcp 1040 ------- 0 0.0 1.0 84 219
r 0.348613 0 1 tcp 1040 ------- 0 0.0 1.0 68 175
+ 0.348613 1 0 ack 40 ------- 0 1.0 0.0 68 220
- 0.348613 1 0 ack 40 ------- 0 1.0 0.0 68 220
- 0.349707 0 1 tcp 1040 ------- 0 0.0 1.0 73 188
r 0.3504 1 0 ack 40 ------- 0 1.0 0.0 65 212
+ 0.3504 0 1 tcp 1040 ------- 0 0.0 1.0 85 221
r 0.35056 2 3 cbr 210 ------- 0 2.0 3.0 64 211
+ 0.35125 2 3 cbr 210 ------- 0 2.0 3.0 67 222
- 0.35125 2 3 cbr 210 ------- 0 2.0 3.0 67 222
r 0.351387 0 1 tcp 1040 ------- 0 0.0 1.0 69 177
+ 0.351387 1 0 ack 40 ------- 0 1.0 0.0 69 223
- 0.351387 1 0 ack 40 ------- 0 1.0 0.0 69 223
- 0.35248 0 1 tcp 1040 ------- 0 0.0 1.0 74 191
r 0.353173 1 0 ack 40 ------- 0 1.0 0.0 66 214
+ 0.353173 0 1 tcp 1040 ------- 0 0.0 1.0 86 224
r 0.35416 0 1 tcp 1040 ------- 0 0.0 1.0 70 180
+ 0.35416 1 0 ack 40 ------- 0 1.0 0.0 70 225
- 0.35416 1 0 ack 40 ------- 0 1.0 0.0 70 225